% Model:              Simulação_oficial_V1.mph
% Version:            COMSOL 6.1.0.282
% Date:               Oct 28 2025, 17:11
% Table:              Table 7 - Volume Integration 2
% angle                                           lambda                                            Electric field norm (V*m^2)
0                                                 300                                               1.2505322841546587E-14
0                                                 305                                               1.2543368754013843E-14
0                                                 310                                               1.2586722114229153E-14
0                                                 315                                               1.2610133997904926E-14
0                                                 320                                               1.2626193280107856E-14
0                                                 325                                               1.2742369107151545E-14
0                                                 330                                               1.2869564197983014E-14
0                                                 335                                               1.2932748147763449E-14
0                                                 340                                               1.2965484846106119E-14
0                                                 345                                               1.2978726282896689E-14
0                                                 350                                               1.2972561737443479E-14
0                                                 355                                               1.2970984596584751E-14
0                                                 360                                               1.3003589245581603E-14
0                                                 365                                               1.3036424456958973E-14
0                                                 370                                               1.3068046201728113E-14
0                                                 375                                               1.3098021408018235E-14
0                                                 380                                               1.3128424711526846E-14
0                                                 385                                               1.3136725756666464E-14
0                                                 390                                               1.3134953589874984E-14
0                                                 395                                               1.3132661291826912E-14
0                                                 400                                               1.314458837298453E-14
0                                                 405                                               1.3169746769518868E-14
0                                                 410                                               1.319463520062618E-14
0                                                 415                                               1.3220407580695477E-14
0                                                 420                                               1.3248043405534605E-14
0                                                 425                                               1.3275327837833463E-14
0                                                 430                                               1.3302288445346146E-14
0                                                 435                                               1.3386714380840722E-14
0                                                 440                                               1.3479053889233246E-14
0                                                 445                                               1.3573023648592723E-14
0                                                 450                                               1.3668668002546148E-14
0                                                 455                                               1.3771226569684073E-14
0                                                 460                                               1.3876858651366169E-14
0                                                 465                                               1.398451483721682E-14
0                                                 470                                               1.4094273405161187E-14
0                                                 475                                               1.433852352482079E-14
0                                                 480                                               1.4650433698124846E-14
0                                                 485                                               1.4982657090188487E-14
0                                                 490                                               1.5337568662095937E-14
0                                                 495                                               1.571801553903974E-14
0                                                 500                                               1.6236816284561734E-14
0                                                 505                                               1.6831036736797602E-14
0                                                 510                                               1.748689651207971E-14
0                                                 515                                               1.8214549345615835E-14
0                                                 520                                               1.9025674206067834E-14
0                                                 525                                               1.9348976349931038E-14
0                                                 530                                               1.955126144117097E-14
0                                                 535                                               1.976267668684689E-14
0                                                 540                                               2.000076729375763E-14
0                                                 545                                               2.028588557315147E-14
0                                                 550                                               2.0592625347149577E-14
0                                                 555                                               2.0861949235289274E-14
0                                                 560                                               2.1246355273058697E-14
0                                                 565                                               2.1807594959020914E-14
0                                                 570                                               2.2620867232093286E-14
0                                                 575                                               2.37480299027858E-14
0                                                 580                                               2.5190133090572294E-14
0                                                 585                                               2.6539317655014765E-14
0                                                 590                                               2.7409575072142776E-14
0                                                 595                                               2.7642240459456203E-14
0                                                 600                                               2.7142012523372468E-14
0                                                 605                                               2.6139531857460072E-14
0                                                 610                                               2.5052007117409216E-14
0                                                 615                                               2.4288866467248542E-14
0                                                 620                                               2.411723281507774E-14
0                                                 625                                               2.4502107785504468E-14
0                                                 630                                               2.5462571293262885E-14
0                                                 635                                               2.7080550408249246E-14
0                                                 640                                               2.94476627341444E-14
0                                                 645                                               3.241159193237382E-14
0                                                 650                                               3.5168791654140054E-14
0                                                 655                                               3.614340102725904E-14
0                                                 660                                               3.425166915679563E-14
0                                                 665                                               3.076611408585785E-14
0                                                 670                                               2.7909193546038094E-14
0                                                 675                                               2.6222700747696257E-14
0                                                 680                                               2.5659022784672335E-14
0                                                 685                                               2.5956847746138382E-14
0                                                 690                                               2.688308935898471E-14
0                                                 695                                               2.8311543571089483E-14
0                                                 700                                               3.0191871644477706E-14
0                                                 705                                               3.241744676916312E-14
0                                                 710                                               3.4368245920045946E-14
0                                                 715                                               3.5433319834942343E-14
0                                                 720                                               3.521627168867407E-14
0                                                 725                                               3.446169679487771E-14
0                                                 730                                               3.417580243389571E-14
0                                                 735                                               3.474223742074095E-14
0                                                 740                                               3.608899818939541E-14
0                                                 745                                               3.805808785819973E-14
0                                                 750                                               4.0547528431891247E-14
0                                                 755                                               4.350754365680819E-14
0                                                 760                                               4.677983907704631E-14
0                                                 765                                               5.0270937942780326E-14
0                                                 770                                               5.363316423742542E-14
0                                                 775                                               5.612819294491756E-14
0                                                 780                                               5.701918683969263E-14
0                                                 785                                               5.6463401266556466E-14
0                                                 790                                               5.554251964190473E-14
0                                                 795                                               5.517990122350887E-14
0                                                 800                                               5.5517716111554166E-14
15                                                300                                               1.277805889449991E-14
15                                                305                                               1.2837674505738448E-14
15                                                310                                               1.2897403246527191E-14
15                                                315                                               1.2937138016858157E-14
15                                                320                                               1.2968088882555243E-14
15                                                325                                               1.3083683786498774E-14
15                                                330                                               1.3207681056991905E-14
15                                                335                                               1.3276160938739156E-14
15                                                340                                               1.3317429922761304E-14
15                                                345                                               1.3340546279020048E-14
15                                                350                                               1.3345678923570397E-14
15                                                355                                               1.3353532731116705E-14
15                                                360                                               1.3388625729104392E-14
15                                                365                                               1.342376319178469E-14
15                                                370                                               1.345754018910923E-14
15                                                375                                               1.3489586481185375E-14
15                                                380                                               1.3521987696226549E-14
15                                                385                                               1.3535545197469038E-14
15                                                390                                               1.3540276702577654E-14
15                                                395                                               1.3544307828093871E-14
15                                                400                                               1.3560746184321947E-14
15                                                405                                               1.3588732700642991E-14
15                                                410                                               1.3616295987640955E-14
15                                                415                                               1.3644525318863668E-14
15                                                420                                               1.367430735116E-14
15                                                425                                               1.3703569624918657E-14
15                                                430                                               1.3732349937997093E-14
15                                                435                                               1.3811933866652868E-14
15                                                440                                               1.3898399035948906E-14
15                                                445                                               1.3986180162095838E-14
15                                                450                                               1.4075323620888026E-14
15                                                455                                               1.417040938209174E-14
15                                                460                                               1.426803993281007E-14
15                                                465                                               1.4367304822575554E-14
15                                                470                                               1.4468282217666635E-14
15                                                475                                               1.468910768219926E-14
15                                                480                                               1.4970224284995287E-14
15                                                485                                               1.526936965758885E-14
15                                                490                                               1.558863421930939E-14
15                                                495                                               1.5930533606438493E-14
15                                                500                                               1.6397507873730558E-14
15                                                505                                               1.693212221017038E-14
15                                                510                                               1.7521200024706943E-14
15                                                515                                               1.8172884097577122E-14
15                                                520                                               1.889618672787181E-14
15                                                525                                               1.9185457848816535E-14
15                                                530                                               1.9367285985739594E-14
15                                                535                                               1.9557296227249255E-14
15                                                540                                               1.9770626976720356E-14
15                                                545                                               2.0022027694089627E-14
15                                                550                                               2.0279600234885864E-14
15                                                555                                               2.0478383761554213E-14
15                                                560                                               2.073670470376117E-14
15                                                565                                               2.109193926530803E-14
15                                                570                                               2.1601370908548068E-14
15                                                575                                               2.234730415728719E-14
15                                                580                                               2.343775816276769E-14
15                                                585                                               2.476703254742785E-14
15                                                590                                               2.613752980808915E-14
15                                                595                                               2.7333776986898737E-14
15                                                600                                               2.8009908501039907E-14
15                                                605                                               2.807208945803338E-14
15                                                610                                               2.777008279304444E-14
15                                                615                                               2.7421559589052524E-14
15                                                620                                               2.7211575116758506E-14
15                                                625                                               2.7297901302646663E-14
15                                                630                                               2.788403715215237E-14
15                                                635                                               2.89995839161379E-14
15                                                640                                               3.0208226387343297E-14
15                                                645                                               3.05721428365934E-14
15                                                650                                               2.949960272172134E-14
15                                                655                                               2.7601628953583075E-14
15                                                660                                               2.5941942029066263E-14
15                                                665                                               2.5057203257013522E-14
15                                                670                                               2.4848499747906003E-14
15                                                675                                               2.5243669468053863E-14
15                                                680                                               2.6161896154021026E-14
15                                                685                                               2.755951327058393E-14
15                                                690                                               2.944483524249361E-14
15                                                695                                               3.176158887902011E-14
15                                                700                                               3.401566439425427E-14
15                                                705                                               3.5028507275072965E-14
15                                                710                                               3.422192292346267E-14
15                                                715                                               3.2878945861467904E-14
15                                                720                                               3.201171753254014E-14
15                                                725                                               3.192228729748295E-14
15                                                730                                               3.248349719222245E-14
15                                                735                                               3.3491350361062066E-14
15                                                740                                               3.4804631958567056E-14
15                                                745                                               3.634760173429371E-14
15                                                750                                               3.80833217038046E-14
15                                                755                                               3.999339287520558E-14
15                                                760                                               4.200690375100019E-14
15                                                765                                               4.414125122156541E-14
15                                                770                                               4.639030297989362E-14
15                                                775                                               4.871293087353225E-14
15                                                780                                               5.1005218466762716E-14
15                                                785                                               5.312218797318091E-14
15                                                790                                               5.5027824227694225E-14
15                                                795                                               5.672171689202925E-14
15                                                800                                               5.808148360089796E-14
30                                                300                                               1.2959946717773786E-14
30                                                305                                               1.3052849851844251E-14
30                                                310                                               1.313934159782755E-14
30                                                315                                               1.32043374940067E-14
30                                                320                                               1.3258005945004453E-14
30                                                325                                               1.3380657583321392E-14
30                                                330                                               1.350806106886338E-14
30                                                335                                               1.358765598082826E-14
30                                                340                                               1.3642716362049818E-14
30                                                345                                               1.3680387164047694E-14
30                                                350                                               1.3701018942212918E-14
30                                                355                                               1.3721924903257667E-14
30                                                360                                               1.3761592325560346E-14
30                                                365                                               1.3800864338806741E-14
30                                                370                                               1.3838291064580413E-14
30                                                375                                               1.3873557610494932E-14
30                                                380                                               1.3908948873446805E-14
30                                                385                                               1.3929211265247718E-14
30                                                390                                               1.3942009667469258E-14
30                                                395                                               1.395379797663332E-14
30                                                400                                               1.3976149731425525E-14
30                                                405                                               1.4008334132606244E-14
30                                                410                                               1.4039839475479002E-14
30                                                415                                               1.4071820184032634E-14
30                                                420                                               1.4105187675739248E-14
30                                                425                                               1.4137784227710167E-14
30                                                430                                               1.4169664907387821E-14
30                                                435                                               1.4245626474422152E-14
30                                                440                                               1.432733809181753E-14
30                                                445                                               1.440995529392964E-14
30                                                450                                               1.4493531770601424E-14
30                                                455                                               1.4582401797356268E-14
30                                                460                                               1.4673290957287183E-14
30                                                465                                               1.476534724645567E-14
30                                                470                                               1.4858659790486998E-14
30                                                475                                               1.5055415530488476E-14
30                                                480                                               1.530420363992175E-14
30                                                485                                               1.5568469922587427E-14