% Model:              Simulação_oficial_V1.mph
% Version:            COMSOL 6.1.0.282
% Date:               Oct 27 2025, 18:09
% Table:              Table 7 - Volume Integration 2
% angle                                           lambda                                            Electric field norm (V*m^2)
0                                                 300                                               1.9586695843471086E-14
0                                                 305                                               1.9687089522877206E-14
0                                                 310                                               1.980373161560111E-14
0                                                 315                                               1.9893603842357993E-14
0                                                 320                                               1.9974614409956164E-14
0                                                 325                                               2.0208137289641033E-14
0                                                 330                                               2.0454710691059077E-14
0                                                 335                                               2.0608530739420357E-14
0                                                 340                                               2.0718471336423102E-14
0                                                 345                                               2.07985356735554E-14
0                                                 350                                               2.084924508145407E-14
0                                                 355                                               2.0902496725922726E-14
0                                                 360                                               2.0986429877340516E-14
0                                                 365                                               2.106959260821003E-14
0                                                 370                                               2.114836920732531E-14
0                                                 375                                               2.12216660453567E-14
0                                                 380                                               2.129478049268424E-14
0                                                 385                                               2.134461214663944E-14
0                                                 390                                               2.13831603951542E-14
0                                                 395                                               2.1420200938891215E-14
0                                                 400                                               2.1477616343423597E-14
0                                                 405                                               2.155376534989951E-14
0                                                 410                                               2.1628584717074633E-14
0                                                 415                                               2.1705370107124367E-14
0                                                 420                                               2.1786919362609628E-14
0                                                 425                                               2.1866900429373285E-14
0                                                 430                                               2.1945387243092213E-14
0                                                 435                                               2.2103346748179966E-14
0                                                 440                                               2.227108037562177E-14
0                                                 445                                               2.2439812597487768E-14
0                                                 450                                               2.2609643913852882E-14
0                                                 455                                               2.2792545202127608E-14
0                                                 460                                               2.2979039083153014E-14
0                                                 465                                               2.3166598612967375E-14
0                                                 470                                               2.3355332118994286E-14
0                                                 475                                               2.3715878250277787E-14
0                                                 480                                               2.4165162608566152E-14
0                                                 485                                               2.4643363919280745E-14
0                                                 490                                               2.5154515419609227E-14
0                                                 495                                               2.5703523535278986E-14
0                                                 500                                               2.6438570557328637E-14
0                                                 505                                               2.729361548031771E-14
0                                                 510                                               2.8256322250934764E-14
0                                                 515                                               2.934391208763133E-14
0                                                 520                                               3.057434908481055E-14
0                                                 525                                               3.1004922750432756E-14
0                                                 530                                               3.1171658164237583E-14
0                                                 535                                               3.1253233422504824E-14
0                                                 540                                               3.124661431286873E-14
0                                                 545                                               3.1165215168030066E-14
0                                                 550                                               3.100614087389028E-14
0                                                 555                                               3.077063534391369E-14
0                                                 560                                               3.0581867811849384E-14
0                                                 565                                               3.0451525760470365E-14
0                                                 570                                               3.038536941580892E-14
0                                                 575                                               3.038562734543449E-14
0                                                 580                                               3.045650747168217E-14
0                                                 585                                               3.056270922323162E-14
0                                                 590                                               3.0727676736132843E-14
0                                                 595                                               3.098723694812676E-14
0                                                 600                                               3.1336817506605105E-14
0                                                 605                                               3.176554686238138E-14
0                                                 610                                               3.226390120077729E-14
0                                                 615                                               3.2827929229358504E-14
0                                                 620                                               3.339515357743695E-14
0                                                 625                                               3.397811504343424E-14
0                                                 630                                               3.460869015548065E-14
0                                                 635                                               3.528729854770563E-14
0                                                 640                                               3.601458365473845E-14
0                                                 645                                               3.6791449057835165E-14
0                                                 650                                               3.761905147391942E-14
0                                                 655                                               3.849876669649904E-14
0                                                 660                                               3.941366680655034E-14
0                                                 665                                               4.020452879261639E-14
0                                                 670                                               4.102689563426175E-14
0                                                 675                                               4.187986036615579E-14
0                                                 680                                               4.27621636782519E-14
0                                                 685                                               4.3672092285185896E-14
0                                                 690                                               4.4607366127476495E-14
0                                                 695                                               4.556501452044075E-14
0                                                 700                                               4.654124259314121E-14
0                                                 705                                               4.752086365338187E-14
0                                                 710                                               4.841031712925035E-14
0                                                 715                                               4.9293300921580135E-14
0                                                 720                                               5.0162290093636006E-14
0                                                 725                                               5.100874206664129E-14
0                                                 730                                               5.182312094732298E-14
0                                                 735                                               5.2594978054864184E-14
0                                                 740                                               5.3313100397932294E-14
0                                                 745                                               5.396573619706888E-14
0                                                 750                                               5.454090155439458E-14
0                                                 755                                               5.502676490026195E-14
0                                                 760                                               5.5386902715312166E-14
0                                                 765                                               5.5633798568995895E-14
0                                                 770                                               5.576651636950983E-14
0                                                 775                                               5.577938869649399E-14
0                                                 780                                               5.56689836807511E-14
0                                                 785                                               5.543432188659133E-14
0                                                 790                                               5.507696288345307E-14
0                                                 795                                               5.4600950644868775E-14
0                                                 800                                               5.401262205662364E-14
15                                                300                                               1.9800845964730793E-14
15                                                305                                               1.993977945061011E-14
15                                                310                                               2.0086088398185317E-14
15                                                315                                               2.020938876062331E-14
15                                                320                                               2.032279576563972E-14
15                                                325                                               2.055189572452104E-14
15                                                330                                               2.0788678701288658E-14
15                                                335                                               2.0956448918192775E-14
15                                                340                                               2.1090013457410238E-14
15                                                345                                               2.119771685075686E-14
15                                                350                                               2.1279997487315693E-14
15                                                355                                               2.1359661085676748E-14
15                                                360                                               2.1448929361450907E-14
15                                                365                                               2.1536962261289418E-14
15                                                370                                               2.161981739251604E-14
15                                                375                                               2.1696372260057812E-14
15                                                380                                               2.1772476799034078E-14
15                                                385                                               2.1835554752590618E-14
15                                                390                                               2.1891337572361644E-14
15                                                395                                               2.1945088122318678E-14
15                                                400                                               2.2015040679295046E-14
15                                                405                                               2.2099883715058857E-14
15                                                410                                               2.2182986238382878E-14
15                                                415                                               2.226800530878779E-14
15                                                420                                               2.23580217877122E-14
15                                                425                                               2.2446039905104455E-14
15                                                430                                               2.2532153055963427E-14
15                                                435                                               2.2681286081791383E-14
15                                                440                                               2.2837244555315363E-14
15                                                445                                               2.299298221373465E-14
15                                                450                                               2.3148582489959344E-14
15                                                455                                               2.3316185011972196E-14
15                                                460                                               2.348585504117251E-14
15                                                465                                               2.3654970472140437E-14
15                                                470                                               2.3823612703143162E-14
15                                                475                                               2.4115232622256646E-14
15                                                480                                               2.446867504440652E-14
15                                                485                                               2.484011606738956E-14
15                                                490                                               2.5231992233281232E-14
15                                                495                                               2.5647281939777257E-14
15                                                500                                               2.6184450029769618E-14
15                                                505                                               2.6807822563351484E-14
15                                                510                                               2.751296904042922E-14
15                                                515                                               2.8316553348738305E-14
15                                                520                                               2.9238952122432724E-14
15                                                525                                               2.961767740925808E-14
15                                                530                                               2.981824230739969E-14
15                                                535                                               2.996387323514345E-14
15                                                540                                               3.0052270596626134E-14
15                                                545                                               3.009717657263902E-14
15                                                550                                               3.0097051004270426E-14
15                                                555                                               3.0037732235697914E-14
15                                                560                                               3.001693502424067E-14
15                                                565                                               3.0027353950841794E-14
15                                                570                                               3.004826504526082E-14
15                                                575                                               3.005700220068951E-14
15                                                580                                               3.0050886291597297E-14
15                                                585                                               3.000495149093828E-14
15                                                590                                               2.9960928413820795E-14
15                                                595                                               2.995205578607466E-14
15                                                600                                               2.997579028368284E-14
15                                                605                                               3.006024686158535E-14
15                                                610                                               3.025007313546463E-14
15                                                615                                               3.055944956717427E-14
15                                                620                                               3.093098738505095E-14
15                                                625                                               3.1337971126885545E-14
15                                                630                                               3.1783280493884754E-14
15                                                635                                               3.225830325084168E-14
15                                                640                                               3.2758108940708195E-14
15                                                645                                               3.3280094855558476E-14
15                                                650                                               3.382304435715185E-14
15                                                655                                               3.438654584534972E-14
15                                                660                                               3.4959239182393604E-14
15                                                665                                               3.544442156608948E-14
15                                                670                                               3.59401962351674E-14
15                                                675                                               3.644650292565239E-14
15                                                680                                               3.696320162472327E-14
15                                                685                                               3.749005721033184E-14
15                                                690                                               3.802672456561849E-14
15                                                695                                               3.857273329715915E-14
15                                                700                                               3.9127471614757575E-14
15                                                705                                               3.9684657677452385E-14
15                                                710                                               4.0197492495341456E-14
15                                                715                                               4.0713022530649177E-14
15                                                720                                               4.122996196458988E-14
15                                                725                                               4.174684322940015E-14
15                                                730                                               4.226200665174925E-14
15                                                735                                               4.2773591571705605E-14
15                                                740                                               4.3279529600866676E-14
15                                                745                                               4.377754077129132E-14
15                                                750                                               4.4265133403703584E-14
15                                                755                                               4.473960857854985E-14
15                                                760                                               4.518184500051752E-14
15                                                765                                               4.560110445709112E-14
15                                                770                                               4.599845449714849E-14
15                                                775                                               4.637079979623762E-14
15                                                780                                               4.6714978459010996E-14
15                                                785                                               4.702780495956634E-14
15                                                790                                               4.730611955489886E-14
15                                                795                                               4.7546843373627374E-14
15                                                800                                               4.7747037947754697E-14
30                                                300                                               1.9753994658485294E-14
30                                                305                                               1.9914629387044184E-14
30                                                310                                               2.0077702651845272E-14
30                                                315                                               2.0219785588513884E-14
30                                                320                                               2.0351445938490964E-14
30                                                325                                               2.057849047171397E-14
30                                                330                                               2.0810046928642722E-14
30                                                335                                               2.0985766176962888E-14
30                                                340                                               2.1132755935350706E-14
30                                                345                                               2.1256203296152957E-14
30                                                350                                               2.1356543312663875E-14
30                                                355                                               2.145131305493623E-14
30                                                360                                               2.1542946442775883E-14
30                                                365                                               2.1632978862883295E-14
30                                                370                                               2.1717219048655972E-14
30                                                375                                               2.179450394982122E-14
30                                                380                                               2.187109906227515E-14
30                                                385                                               2.194094126190497E-14
30                                                390                                               2.2005969078658822E-14
30                                                395                                               2.2068666369898047E-14
30                                                400                                               2.2145168955538264E-14
30                                                405                                               2.223433605055493E-14
30                                                410                                               2.2321504774152395E-14
30                                                415                                               2.241064642702991E-14
30                                                420                                               2.25051193019022E-14
30                                                425                                               2.2597347624259095E-14
30                                                430                                               2.2687435740479848E-14
30                                                435                                               2.2830755344245026E-14
30                                                440                                               2.2979170320436794E-14
30                                                445                                               2.312667153245394E-14
30                                                450                                               2.32733390114031E-14
30                                                455                                               2.3431920324691295E-14
30                                                460                                               2.3591869920674512E-14
30                                                465                                               2.3750413257625397E-14
30                                                470                                               2.390762610842565E-14
30                                                475                                               2.4157959583772048E-14
30                                                480                                               2.4454459115047302E-14
30                                                485                                               2.476336676987378E-14