% Model:              Simulação_oficial_V1.mph
% Version:            COMSOL 6.1.0.282
% Date:               Oct 28 2025, 22:06
% Table:              Table 7 - Volume Integration 2
% angle                                           lambda                                            Electric field norm (V*m^2)
0                                                 300                                               1.6521591762979558E-14
0                                                 305                                               1.6638766811241113E-14
0                                                 310                                               1.6753697440230112E-14
0                                                 315                                               1.6830153039188228E-14
0                                                 320                                               1.688948198334327E-14
0                                                 325                                               1.7100970417799453E-14
0                                                 330                                               1.732457960336285E-14
0                                                 335                                               1.745085311276129E-14
0                                                 340                                               1.75299547647359E-14
0                                                 345                                               1.7576431872642166E-14
0                                                 350                                               1.7591109002681543E-14
0                                                 355                                               1.760772127576973E-14
0                                                 360                                               1.7653800410387446E-14
0                                                 365                                               1.7698846200934014E-14
0                                                 370                                               1.7738663492367606E-14
0                                                 375                                               1.777182975561347E-14
0                                                 380                                               1.7804524188488096E-14
0                                                 385                                               1.7814602614772424E-14
0                                                 390                                               1.7813971978377042E-14
0                                                 395                                               1.7812128087592187E-14
0                                                 400                                               1.78331339120946E-14
0                                                 405                                               1.7875289535028502E-14
0                                                 410                                               1.7916589090681176E-14
0                                                 415                                               1.7961444818763655E-14
0                                                 420                                               1.8013863572305115E-14
0                                                 425                                               1.8065424803422065E-14
0                                                 430                                               1.8116194984632645E-14
0                                                 435                                               1.825461223233095E-14
0                                                 440                                               1.8405181354661987E-14
0                                                 445                                               1.855836972079167E-14
0                                                 450                                               1.871430766542152E-14
0                                                 455                                               1.8890758061104523E-14
0                                                 460                                               1.907422729441911E-14
0                                                 465                                               1.926099623515403E-14
0                                                 470                                               1.9451200032575667E-14
0                                                 475                                               1.9826079617232393E-14
0                                                 480                                               2.0302623871430658E-14
0                                                 485                                               2.081873297756078E-14
0                                                 490                                               2.1379343541206895E-14
0                                                 495                                               2.1990311698800017E-14
0                                                 500                                               2.27799714426625E-14
0                                                 505                                               2.3709564604167432E-14
0                                                 510                                               2.4782869385254515E-14
0                                                 515                                               2.603499360447161E-14
0                                                 520                                               2.7513527837602046E-14
0                                                 525                                               2.8040502957299118E-14
0                                                 530                                               2.825788770116634E-14
0                                                 535                                               2.838064804922389E-14
0                                                 540                                               2.8381964643370374E-14
0                                                 545                                               2.823200133235898E-14
0                                                 550                                               2.784933143826733E-14
0                                                 555                                               2.7204273718293868E-14
0                                                 560                                               2.6521965039747993E-14
0                                                 565                                               2.5870186333906266E-14
0                                                 570                                               2.531107227405717E-14
0                                                 575                                               2.4882507520805244E-14
0                                                 580                                               2.4594700477415507E-14
0                                                 585                                               2.4376721759771867E-14
0                                                 590                                               2.4220960248712786E-14
0                                                 595                                               2.416348127429037E-14
0                                                 600                                               2.4185667589602756E-14
0                                                 605                                               2.4201750593937037E-14
0                                                 610                                               2.4052572920587196E-14
0                                                 615                                               2.3650636736474878E-14
0                                                 620                                               2.3182632019143857E-14
0                                                 625                                               2.2843249657663137E-14
0                                                 630                                               2.2735178128389236E-14
0                                                 635                                               2.2913029862369793E-14
0                                                 640                                               2.3384946317594605E-14
0                                                 645                                               2.415038669484453E-14
0                                                 650                                               2.5233303847394702E-14
0                                                 655                                               2.6695648748987496E-14
0                                                 660                                               2.861495898037905E-14
0                                                 665                                               3.0774806253772814E-14
0                                                 670                                               3.3483875986253704E-14
0                                                 675                                               3.678862455351338E-14
0                                                 680                                               4.045927266384919E-14
0                                                 685                                               4.358378690012167E-14
0                                                 690                                               4.462600296564101E-14
0                                                 695                                               4.3177547152077065E-14
0                                                 700                                               4.127700026638874E-14
0                                                 705                                               4.136510523231968E-14
0                                                 710                                               4.404888271366042E-14
0                                                 715                                               4.8446406292701135E-14
0                                                 720                                               5.238943851700469E-14
0                                                 725                                               5.350975633926171E-14
0                                                 730                                               5.1554448524216234E-14
0                                                 735                                               4.85424474801575E-14
0                                                 740                                               4.603066202283938E-14
0                                                 745                                               4.3809558111788023E-14
0                                                 750                                               4.0819811734927734E-14
0                                                 755                                               3.686378796333817E-14
0                                                 760                                               3.28201504959594E-14
0                                                 765                                               2.937786114071488E-14
0                                                 770                                               2.6700735107521422E-14
0                                                 775                                               2.4699284685401303E-14
0                                                 780                                               2.3232134716733478E-14
0                                                 785                                               2.2184180243800175E-14
0                                                 790                                               2.1478208521240176E-14
0                                                 795                                               2.1067893887266156E-14
0                                                 800                                               2.093244229636575E-14
15                                                300                                               1.7051168617647988E-14
15                                                305                                               1.716910973688044E-14
15                                                310                                               1.728432091485644E-14
15                                                315                                               1.736406545832442E-14
15                                                320                                               1.742791578680752E-14
15                                                325                                               1.763096558344684E-14
15                                                330                                               1.7845193414299917E-14
15                                                335                                               1.7969543720306048E-14
15                                                340                                               1.8050100699737922E-14
15                                                345                                               1.8100458631003653E-14
15                                                350                                               1.81213310958273E-14
15                                                355                                               1.8144111209739807E-14
15                                                360                                               1.8196386231719142E-14
15                                                365                                               1.8247731420814482E-14
15                                                370                                               1.8294574909877242E-14
15                                                375                                               1.8335766100418607E-14
15                                                380                                               1.8376609099364432E-14
15                                                385                                               1.83947804044226E-14
15                                                390                                               1.8402122965462993E-14
15                                                395                                               1.8408174347010592E-14
15                                                400                                               1.843490024841675E-14
15                                                405                                               1.8480771316660232E-14
15                                                410                                               1.8525716878547946E-14
15                                                415                                               1.8573357085151926E-14
15                                                420                                               1.862692922904819E-14
15                                                425                                               1.8679538752674035E-14
15                                                430                                               1.873125337594039E-14
15                                                435                                               1.886366750269123E-14
15                                                440                                               1.9007076326820853E-14
15                                                445                                               1.9152685222634567E-14
15                                                450                                               1.9300617780479712E-14
15                                                455                                               1.9465258410869184E-14
15                                                460                                               1.9635651299876214E-14
15                                                465                                               1.980880970957465E-14
15                                                470                                               1.998487127912637E-14
15                                                475                                               2.0336519942220016E-14
15                                                480                                               2.078389556627859E-14
15                                                485                                               2.126772576759628E-14
15                                                490                                               2.179276557046226E-14
15                                                495                                               2.2364692508984917E-14
15                                                500                                               2.312322467566532E-14
15                                                505                                               2.4019576466691262E-14
15                                                510                                               2.505264808092834E-14
15                                                515                                               2.6253198602181428E-14
15                                                520                                               2.7660902885467315E-14
15                                                525                                               2.817662143237914E-14
15                                                530                                               2.8401628012543868E-14
15                                                535                                               2.8540068322427506E-14
15                                                540                                               2.857604140955823E-14
15                                                545                                               2.8498323386266914E-14
15                                                550                                               2.8251773017169803E-14
15                                                555                                               2.7809157283613592E-14
15                                                560                                               2.736891759705238E-14
15                                                565                                               2.6975856399564492E-14
15                                                570                                               2.66620283210983E-14
15                                                575                                               2.6432093887609686E-14
15                                                580                                               2.6262267640194548E-14
15                                                585                                               2.604199807853293E-14
15                                                590                                               2.5765069650347288E-14
15                                                595                                               2.5509723748021998E-14
15                                                600                                               2.5361051966888667E-14
15                                                605                                               2.5402994311753527E-14
15                                                610                                               2.567114040478161E-14
15                                                615                                               2.6158037898096348E-14
15                                                620                                               2.6755256468964423E-14
15                                                625                                               2.7408893198709645E-14
15                                                630                                               2.810128471154572E-14
15                                                635                                               2.885315334674886E-14
15                                                640                                               2.9803459273469026E-14
15                                                645                                               3.095467157987219E-14
15                                                650                                               3.198593497813303E-14
15                                                655                                               3.2690530079808165E-14
15                                                660                                               3.341970427750821E-14
15                                                665                                               3.411850106069261E-14
15                                                670                                               3.463448909380928E-14
15                                                675                                               3.411167013412439E-14
15                                                680                                               3.2431018117933216E-14
15                                                685                                               3.0743093698133484E-14
15                                                690                                               3.009690317487222E-14
15                                                695                                               3.07768908678558E-14
15                                                700                                               3.2470747256030377E-14
15                                                705                                               3.4448959424525066E-14
15                                                710                                               3.648301826525626E-14
15                                                715                                               3.943991759738039E-14
15                                                720                                               4.3557004016725324E-14
15                                                725                                               4.8603713462407294E-14
15                                                730                                               5.4168551003748124E-14
15                                                735                                               5.930598324090336E-14
15                                                740                                               6.246838892355937E-14
15                                                745                                               6.269268907033879E-14
15                                                750                                               6.080558112124563E-14
15                                                755                                               5.807208650149596E-14
15                                                760                                               5.478275462166427E-14
15                                                765                                               5.0981358985579316E-14
15                                                770                                               4.695232211508345E-14
15                                                775                                               4.307483602410766E-14
15                                                780                                               3.95988254863854E-14
15                                                785                                               3.6620204912100366E-14
15                                                790                                               3.4140643690097184E-14
15                                                795                                               3.21255919316038E-14
15                                                800                                               3.05429965283541E-14
30                                                300                                               1.775565245439288E-14
30                                                305                                               1.785537651292256E-14
30                                                310                                               1.7957017683375953E-14
30                                                315                                               1.8027012352120556E-14
30                                                320                                               1.808391618578015E-14
30                                                325                                               1.8279165778272364E-14
30                                                330                                               1.8486630194687378E-14
30                                                335                                               1.8605797723209435E-14
30                                                340                                               1.8682440884393903E-14
30                                                345                                               1.873041284579795E-14
30                                                350                                               1.875024323793558E-14
30                                                355                                               1.877320278134464E-14
30                                                360                                               1.8829868737789554E-14
30                                                365                                               1.8885899298144535E-14
30                                                370                                               1.8938215733607988E-14
30                                                375                                               1.898584761778721E-14
30                                                380                                               1.903333293226672E-14
30                                                385                                               1.90562777997305E-14
30                                                390                                               1.9067620697624608E-14
30                                                395                                               1.9077746264633978E-14
30                                                400                                               1.9107770175331087E-14
30                                                405                                               1.9156224009714417E-14
30                                                410                                               1.9203796144373635E-14
30                                                415                                               1.9253460826754664E-14
30                                                420                                               1.930783720982234E-14
30                                                425                                               1.936125108467122E-14
30                                                430                                               1.9413763224339562E-14
30                                                435                                               1.9544741699505712E-14
30                                                440                                               1.968620564279166E-14
30                                                445                                               1.9829579776602968E-14
30                                                450                                               1.9974973630984042E-14
30                                                455                                               2.0134100173032552E-14
30                                                460                                               2.0297967046177863E-14
30                                                465                                               2.0464149229061727E-14
30                                                470                                               2.0632773543076667E-14
30                                                475                                               2.0976292934634037E-14
30                                                480                                               2.1413210563016288E-14
30                                                485                                               2.1883820111402938E-14