% Model:              Simulação_oficial_V1.mph
% Version:            COMSOL 6.1.0.282
% Date:               Oct 29 2025, 15:01
% Table:              Table 7 - Volume Integration 2
% angle                                           lambda                                            Electric field norm (V*m^2)
0                                                 300                                               1.6686649964805974E-14
0                                                 305                                               1.662821821981152E-14
0                                                 310                                               1.6604985340573838E-14
0                                                 315                                               1.655970850625355E-14
0                                                 320                                               1.6515215560032266E-14
0                                                 325                                               1.668074761194442E-14
0                                                 330                                               1.687360519691388E-14
0                                                 335                                               1.69482634353698E-14
0                                                 340                                               1.697142929518676E-14
0                                                 345                                               1.6963524487074688E-14
0                                                 350                                               1.6924647670336578E-14
0                                                 355                                               1.6897578587822446E-14
0                                                 360                                               1.6925280426674932E-14
0                                                 365                                               1.695410474376425E-14
0                                                 370                                               1.6979849633646327E-14
0                                                 375                                               1.7000797844374276E-14
0                                                 380                                               1.702240691664078E-14
0                                                 385                                               1.7012737517490578E-14
0                                                 390                                               1.6989889018194013E-14
0                                                 395                                               1.6967439399780292E-14
0                                                 400                                               1.6972717297108234E-14
0                                                 405                                               1.7003441540978654E-14
0                                                 410                                               1.7034257858610707E-14
0                                                 415                                               1.7069337066485427E-14
0                                                 420                                               1.7112551208333855E-14
0                                                 425                                               1.7155699740263846E-14
0                                                 430                                               1.7198769461641953E-14
0                                                 435                                               1.7342974957185334E-14
0                                                 440                                               1.7501496611290578E-14
0                                                 445                                               1.7663372798757998E-14
0                                                 450                                               1.782873051492649E-14
0                                                 455                                               1.8015690338991162E-14
0                                                 460                                               1.821065299654174E-14
0                                                 465                                               1.8409838692911698E-14
0                                                 470                                               1.861338587532172E-14
0                                                 475                                               1.903499971666222E-14
0                                                 480                                               1.9576222203720418E-14
0                                                 485                                               2.0163718633273107E-14
0                                                 490                                               2.0803315550405533E-14
0                                                 495                                               2.1501964225100036E-14
0                                                 500                                               2.241385269613468E-14
0                                                 505                                               2.3471519379677183E-14
0                                                 510                                               2.4660894630173632E-14
0                                                 515                                               2.5995727416847162E-14
0                                                 520                                               2.7487289827927175E-14
0                                                 525                                               2.7849959581544906E-14
0                                                 530                                               2.7852912114802718E-14
0                                                 535                                               2.7759750009275995E-14
0                                                 540                                               2.7588540360686006E-14
0                                                 545                                               2.7381161799722616E-14
0                                                 550                                               2.7156090384685393E-14
0                                                 555                                               2.6911376186064684E-14
0                                                 560                                               2.6844964210653063E-14
0                                                 565                                               2.7009064459833062E-14
0                                                 570                                               2.746424566989081E-14
0                                                 575                                               2.8295280125604107E-14
0                                                 580                                               2.960558848496974E-14
0                                                 585                                               3.1179439407784365E-14
0                                                 590                                               3.277973805490198E-14
0                                                 595                                               3.4218891286748726E-14
0                                                 600                                               3.512746021165255E-14
0                                                 605                                               3.537417119616234E-14
0                                                 610                                               3.525681976287644E-14
0                                                 615                                               3.5449617097233515E-14
0                                                 620                                               3.642273575349146E-14
0                                                 625                                               3.824740216989616E-14
0                                                 630                                               4.064735309631002E-14
0                                                 635                                               4.249781356960506E-14
0                                                 640                                               4.2159100593589437E-14
0                                                 645                                               3.911731063460959E-14
0                                                 650                                               3.465501206564351E-14
0                                                 655                                               3.0249211505782095E-14
0                                                 660                                               2.6580378957428143E-14
0                                                 665                                               2.3848878618778607E-14
0                                                 670                                               2.1799030328874338E-14
0                                                 675                                               2.026938140313256E-14
0                                                 680                                               1.9139233579223957E-14
0                                                 685                                               1.8316152949701203E-14
0                                                 690                                               1.7725418757924528E-14
0                                                 695                                               1.730559734667204E-14
0                                                 700                                               1.7007795794978567E-14
0                                                 705                                               1.6796810299716608E-14
0                                                 710                                               1.6653470225986382E-14
0                                                 715                                               1.6550582596160884E-14
0                                                 720                                               1.6479144970291327E-14
0                                                 725                                               1.6432975229599547E-14
0                                                 730                                               1.6407608423625795E-14
0                                                 735                                               1.6399775133764488E-14
0                                                 740                                               1.640708478729388E-14
0                                                 745                                               1.642777082631032E-14
0                                                 750                                               1.6460504168251072E-14
0                                                 755                                               1.6504267355553103E-14
0                                                 760                                               1.6557734442895298E-14
0                                                 765                                               1.6620297224705612E-14
0                                                 770                                               1.6691590167174835E-14
0                                                 775                                               1.677125599194226E-14
0                                                 780                                               1.6859015826215205E-14
0                                                 785                                               1.6954656057582685E-14
0                                                 790                                               1.7058018406053727E-14
0                                                 795                                               1.7168992316419394E-14
0                                                 800                                               1.728750905325505E-14
15                                                300                                               1.6695647358445006E-14
15                                                305                                               1.6625693716692656E-14
15                                                310                                               1.6594052406052596E-14
15                                                315                                               1.6541241292816647E-14
15                                                320                                               1.649041489839639E-14
15                                                325                                               1.6655846534182364E-14
15                                                330                                               1.684947741023218E-14
15                                                335                                               1.6922409759502775E-14
15                                                340                                               1.6943107988840288E-14
15                                                345                                               1.6932457368326827E-14
15                                                350                                               1.6890559368894954E-14
15                                                355                                               1.6860976578746435E-14
15                                                360                                               1.6887094991420718E-14
15                                                365                                               1.691442674762098E-14
15                                                370                                               1.693863055343808E-14
15                                                375                                               1.695791398236603E-14
15                                                380                                               1.6977881578289702E-14
15                                                385                                               1.696641601511898E-14
15                                                390                                               1.694179769820734E-14
15                                                395                                               1.6917680963873215E-14
15                                                400                                               1.692186267499586E-14
15                                                405                                               1.6951988387899307E-14
15                                                410                                               1.6982246696341165E-14
15                                                415                                               1.701695779950863E-14
15                                                420                                               1.7060134480268298E-14
15                                                425                                               1.7103271958282428E-14
15                                                430                                               1.714635354384423E-14
15                                                435                                               1.7291908624305286E-14
15                                                440                                               1.7451902960882274E-14
15                                                445                                               1.761522851492127E-14
15                                                450                                               1.7782014559897572E-14
15                                                455                                               1.7970933200269977E-14
15                                                460                                               1.8167937187618877E-14
15                                                465                                               1.836913010922607E-14
15                                                470                                               1.8574657361123626E-14
15                                                475                                               1.8999352212603278E-14
15                                                480                                               1.9544139098092368E-14
15                                                485                                               2.0135192453047517E-14
15                                                490                                               2.0778235987320096E-14
15                                                495                                               2.148007694213634E-14
15                                                500                                               2.2390473585955562E-14
15                                                505                                               2.344184388930016E-14
15                                                510                                               2.461898718576814E-14
15                                                515                                               2.593389863092174E-14
15                                                520                                               2.739754326241827E-14
15                                                525                                               2.7760956781089292E-14
15                                                530                                               2.7799493949053903E-14
15                                                535                                               2.7783446073744722E-14
15                                                540                                               2.7738476498448973E-14
15                                                545                                               2.7702532712497582E-14
15                                                550                                               2.7651778511862732E-14
15                                                555                                               2.749883325728549E-14
15                                                560                                               2.74522003858556E-14
15                                                565                                               2.755996796630341E-14
15                                                570                                               2.790790653129206E-14
15                                                575                                               2.8635815923724724E-14
15                                                580                                               2.9925449252001134E-14
15                                                585                                               3.159743479238315E-14
15                                                590                                               3.33613901166935E-14
15                                                595                                               3.484760726460646E-14
15                                                600                                               3.534497501705677E-14
15                                                605                                               3.4489603696509485E-14
15                                                610                                               3.264000273451363E-14
15                                                615                                               3.060141180016521E-14
15                                                620                                               2.9191449802232726E-14
15                                                625                                               2.854003773161453E-14
15                                                630                                               2.836871695574029E-14
15                                                635                                               2.7955020271551257E-14
15                                                640                                               2.659439470554097E-14
15                                                645                                               2.4518998418911088E-14
15                                                650                                               2.2468978331990527E-14
15                                                655                                               2.0840189671213926E-14
15                                                660                                               1.9663667741925415E-14
15                                                665                                               1.8878163752974954E-14
15                                                670                                               1.8306503341894735E-14
15                                                675                                               1.7881736243243394E-14
15                                                680                                               1.755898064506418E-14
15                                                685                                               1.7308691420436372E-14
15                                                690                                               1.711185312116676E-14
15                                                695                                               1.6956157416812404E-14
15                                                700                                               1.6833421232235446E-14
15                                                705                                               1.6738418382840323E-14
15                                                710                                               1.6669539920384867E-14
15                                                715                                               1.661893212144766E-14
15                                                720                                               1.6584514561644095E-14
15                                                725                                               1.6564624485290216E-14
15                                                730                                               1.655791577295669E-14
15                                                735                                               1.6563290154906557E-14
15                                                740                                               1.6579847787184165E-14
15                                                745                                               1.6606850015395094E-14
15                                                750                                               1.6643690336872606E-14
15                                                755                                               1.6689871388400792E-14
15                                                760                                               1.674439499974572E-14
15                                                765                                               1.6807032311248955E-14
15                                                770                                               1.6877641081280503E-14
15                                                775                                               1.6956021565489902E-14
15                                                780                                               1.7042018634241873E-14
15                                                785                                               1.713551652301841E-14
15                                                790                                               1.7236434620700334E-14
15                                                795                                               1.734472409883393E-14
15                                                800                                               1.746036522729809E-14
30                                                300                                               1.682261253189931E-14
30                                                305                                               1.6793975046034727E-14
30                                                310                                               1.6794759613109264E-14
30                                                315                                               1.6769946988643288E-14
30                                                320                                               1.674258617338188E-14
30                                                325                                               1.6918040242133548E-14
30                                                330                                               1.7118341742582014E-14
30                                                335                                               1.720103004667269E-14
30                                                340                                               1.7231595751966114E-14
30                                                345                                               1.723039829736264E-14
30                                                350                                               1.7197625594036682E-14
30                                                355                                               1.717590760870123E-14
30                                                360                                               1.7210316068908925E-14
30                                                365                                               1.7245627787607242E-14
30                                                370                                               1.7278057325377027E-14
30                                                375                                               1.7306113333758346E-14
30                                                380                                               1.733480034595797E-14
30                                                385                                               1.7330530301636192E-14
30                                                390                                               1.7312093671723318E-14
30                                                395                                               1.7293767487181075E-14
30                                                400                                               1.730245246375589E-14
30                                                405                                               1.733599914129813E-14
30                                                410                                               1.7369517847682897E-14
30                                                415                                               1.7406686662905194E-14
30                                                420                                               1.7450889757605673E-14
30                                                425                                               1.749491961390179E-14
30                                                430                                               1.7538776170530185E-14
30                                                435                                               1.7683212181486232E-14
30                                                440                                               1.7841728120726438E-14
30                                                445                                               1.8003394473792763E-14
30                                                450                                               1.8168322632805597E-14
30                                                455                                               1.8352478421365147E-14
30                                                460                                               1.8543842691521874E-14
30                                                465                                               1.8739083617917598E-14
30                                                470                                               1.8938326607959977E-14
30                                                475                                               1.935758883733662E-14
30                                                480                                               1.9894932952444015E-14
30                                                485                                               2.047544501298677E-14