% Model:              Simulação_oficial_V1.mph
% Version:            COMSOL 6.1.0.282
% Date:               Oct 28 2025, 15:16
% Table:              Table 7 - Volume Integration 2
% angle                                           lambda                                            Electric field norm (V*m^2)
0                                                 300                                               2.2209420472717982E-14
0                                                 305                                               2.2402061373175526E-14
0                                                 310                                               2.2588186737105404E-14
0                                                 315                                               2.272386654254953E-14
0                                                 320                                               2.283560977827544E-14
0                                                 325                                               2.313120799159748E-14
0                                                 330                                               2.3440078075964832E-14
0                                                 335                                               2.3625189478421326E-14
0                                                 340                                               2.374951411889386E-14
0                                                 345                                               2.383253536170951E-14
0                                                 350                                               2.3875053654748076E-14
0                                                 355                                               2.392084097121479E-14
0                                                 360                                               2.4015870730553968E-14
0                                                 365                                               2.4109459718409007E-14
0                                                 370                                               2.4197917856178953E-14
0                                                 375                                               2.4280252000782582E-14
0                                                 380                                               2.4362254301650317E-14
0                                                 385                                               2.4407252206338778E-14
0                                                 390                                               2.443444471330516E-14
0                                                 395                                               2.445945595054978E-14
0                                                 400                                               2.4511402987252627E-14
0                                                 405                                               2.4588425819924953E-14
0                                                 410                                               2.4664009708832935E-14
0                                                 415                                               2.4741638406767267E-14
0                                                 420                                               2.4824311418963562E-14
0                                                 425                                               2.490546257034776E-14
0                                                 430                                               2.4985193088507335E-14
0                                                 435                                               2.517482664151937E-14
0                                                 440                                               2.5378988106069695E-14
0                                                 445                                               2.5585628122782268E-14
0                                                 450                                               2.579487658259682E-14
0                                                 455                                               2.6020349029778328E-14
0                                                 460                                               2.6251572848774925E-14
0                                                 465                                               2.64857298671496E-14
0                                                 470                                               2.67229695246263E-14
0                                                 475                                               2.7209060565395913E-14
0                                                 480                                               2.7823317602699568E-14
0                                                 485                                               2.8478734841143E-14
0                                                 490                                               2.918019185538301E-14
0                                                 495                                               2.993358515396239E-14
0                                                 500                                               3.095701638148141E-14
0                                                 505                                               3.214122441168677E-14
0                                                 510                                               3.3459982775355903E-14
0                                                 515                                               3.4929885274538966E-14
0                                                 520                                               3.656735021742418E-14
0                                                 525                                               3.7213197864235976E-14
0                                                 530                                               3.7609698012117813E-14
0                                                 535                                               3.802913234379514E-14
0                                                 540                                               3.8519923680546426E-14
0                                                 545                                               3.914661850386926E-14
0                                                 550                                               3.990239214872458E-14
0                                                 555                                               4.068722293136351E-14
0                                                 560                                               4.1790768138785964E-14
0                                                 565                                               4.325490533606978E-14
0                                                 570                                               4.508005019168088E-14
0                                                 575                                               4.7225397520221386E-14
0                                                 580                                               4.961631162632627E-14
0                                                 585                                               5.1666997171293617E-14
0                                                 590                                               5.303992052035267E-14
0                                                 595                                               5.362205521438561E-14
0                                                 600                                               5.315210668715929E-14
0                                                 605                                               5.1894207707330156E-14
0                                                 610                                               5.073232347443721E-14
0                                                 615                                               5.0551358093926776E-14
0                                                 620                                               5.134643571216241E-14
0                                                 625                                               5.263613522543224E-14
0                                                 630                                               5.4393160785873964E-14
0                                                 635                                               5.68020360235875E-14
0                                                 640                                               5.979271941015634E-14
0                                                 645                                               6.256045078801512E-14
0                                                 650                                               6.368941121224574E-14
0                                                 655                                               6.220795540172694E-14
0                                                 660                                               5.871287824422034E-14
0                                                 665                                               5.506871675347635E-14
0                                                 670                                               5.281545932180021E-14
0                                                 675                                               5.2341933750945486E-14
0                                                 680                                               5.359219906804376E-14
0                                                 685                                               5.591224032084084E-14
0                                                 690                                               5.806913613059021E-14
0                                                 695                                               5.923789765783892E-14
0                                                 700                                               5.971914149592755E-14
0                                                 705                                               5.988115176470742E-14
0                                                 710                                               5.910779597076674E-14
0                                                 715                                               5.735248731857424E-14
0                                                 720                                               5.5358786874225634E-14
0                                                 725                                               5.4059720880224805E-14
0                                                 730                                               5.343613256578849E-14
0                                                 735                                               5.259709431947706E-14
0                                                 740                                               5.080062313027716E-14
0                                                 745                                               4.83229494530727E-14
0                                                 750                                               4.59898762341866E-14
0                                                 755                                               4.438742014403007E-14
0                                                 760                                               4.3713364883638306E-14
0                                                 765                                               4.3869627815320207E-14
0                                                 770                                               4.469410184742044E-14
0                                                 775                                               4.6030794536985516E-14
0                                                 780                                               4.776328391843726E-14
0                                                 785                                               4.9818237489493333E-14
0                                                 790                                               5.2156050426234964E-14
0                                                 795                                               5.4758645330749394E-14
0                                                 800                                               5.761782065445613E-14
15                                                300                                               2.1316893154162333E-14
15                                                305                                               2.1536639107561195E-14
15                                                310                                               2.174679719523758E-14
15                                                315                                               2.190552689935653E-14
15                                                320                                               2.2039143312800555E-14
15                                                325                                               2.234993006748114E-14
15                                                330                                               2.267074170073893E-14
15                                                335                                               2.2873160999524724E-14
15                                                340                                               2.3016971274872573E-14
15                                                345                                               2.3119401119903785E-14
15                                                350                                               2.3181672869002973E-14
15                                                355                                               2.324367419999035E-14
15                                                360                                               2.333763176387713E-14
15                                                365                                               2.342915779030126E-14
15                                                370                                               2.3513476377986897E-14
15                                                375                                               2.3589216110513638E-14
15                                                380                                               2.3663850421719936E-14
15                                                385                                               2.371051242598666E-14
15                                                390                                               2.3743219591195987E-14
15                                                395                                               2.3773502472999648E-14
15                                                400                                               2.3829701295205705E-14
15                                                405                                               2.3909853897572483E-14
15                                                410                                               2.3988152389603882E-14
15                                                415                                               2.4069462158707225E-14
15                                                420                                               2.4158062357025663E-14
15                                                425                                               2.4244772280599722E-14
15                                                430                                               2.4329716285092008E-14
15                                                435                                               2.4517478292764472E-14
15                                                440                                               2.4718709914153054E-14
15                                                445                                               2.492216325840403E-14
15                                                450                                               2.5128016684230263E-14
15                                                455                                               2.5354974419203318E-14
15                                                460                                               2.558875691050386E-14
15                                                465                                               2.582549253425868E-14
15                                                470                                               2.6065372466514792E-14
15                                                475                                               2.6526899606388522E-14
15                                                480                                               2.7107534331725123E-14
15                                                485                                               2.7731566785722347E-14
15                                                490                                               2.8404432310879242E-14
15                                                495                                               2.9132664379875557E-14
15                                                500                                               3.007813163290649E-14
15                                                505                                               3.117538804463954E-14
15                                                510                                               3.241477256676003E-14
15                                                515                                               3.3819952765646386E-14
15                                                520                                               3.541872416211249E-14
15                                                525                                               3.5963241092084493E-14
15                                                530                                               3.620586835093761E-14
15                                                535                                               3.6415589133696484E-14
15                                                540                                               3.661352084367881E-14
15                                                545                                               3.6826000461553037E-14
15                                                550                                               3.701591411967005E-14
15                                                555                                               3.7119764203027044E-14
15                                                560                                               3.739737427411949E-14
15                                                565                                               3.7908665499967136E-14
15                                                570                                               3.869478742157265E-14
15                                                575                                               3.976723321171742E-14
15                                                580                                               4.110361569793735E-14
15                                                585                                               4.2388085068217776E-14
15                                                590                                               4.3521652473919453E-14
15                                                595                                               4.454484793522518E-14
15                                                600                                               4.5269247998527357E-14
15                                                605                                               4.560755171079954E-14
15                                                610                                               4.5707766773769655E-14
15                                                615                                               4.57692109296692E-14
15                                                620                                               4.587654036367553E-14
15                                                625                                               4.6110968216187313E-14
15                                                630                                               4.665783902738129E-14
15                                                635                                               4.787381271136999E-14
15                                                640                                               5.003183227838504E-14
15                                                645                                               5.2849697584123866E-14
15                                                650                                               5.513768805500277E-14
15                                                655                                               5.5230503984049503E-14
15                                                660                                               5.2699740406578874E-14
15                                                665                                               4.906241219648224E-14
15                                                670                                               4.6173411065683694E-14
15                                                675                                               4.426956871073084E-14
15                                                680                                               4.32226298916761E-14
15                                                685                                               4.28578433659778E-14
15                                                690                                               4.305714476137261E-14
15                                                695                                               4.378628726043231E-14
15                                                700                                               4.510475391111673E-14
15                                                705                                               4.709075172780772E-14
15                                                710                                               4.9382222328440835E-14
15                                                715                                               5.163222212993697E-14
15                                                720                                               5.344663649403478E-14
15                                                725                                               5.4593184233986695E-14
15                                                730                                               5.428353380114108E-14
15                                                735                                               5.199191064993581E-14
15                                                740                                               4.855333870058001E-14
15                                                745                                               4.52721580578626E-14
15                                                750                                               4.293418184302736E-14
15                                                755                                               4.171415179820871E-14
15                                                760                                               4.142409263479319E-14
15                                                765                                               4.1746510807963906E-14
15                                                770                                               4.245381150828116E-14
15                                                775                                               4.340627342195246E-14
15                                                780                                               4.452670009392565E-14
15                                                785                                               4.577566157603351E-14
15                                                790                                               4.713438691841353E-14
15                                                795                                               4.85948471860977E-14
15                                                800                                               5.015433267646575E-14
30                                                300                                               2.1016190578675152E-14
30                                                305                                               2.124226798712063E-14
30                                                310                                               2.1459207560568344E-14
30                                                315                                               2.1625134616740556E-14
30                                                320                                               2.1766348533337504E-14
30                                                325                                               2.208434231560992E-14
30                                                330                                               2.241123170618692E-14
30                                                335                                               2.2621580403172245E-14
30                                                340                                               2.277441282071125E-14
30                                                345                                               2.2886067652111134E-14
30                                                350                                               2.295799727745554E-14
30                                                355                                               2.3028249600521115E-14
30                                                360                                               2.3121841808673096E-14
30                                                365                                               2.3212556458010272E-14
30                                                370                                               2.32950121258657E-14
30                                                375                                               2.3367609608127962E-14
30                                                380                                               2.3438720540800504E-14
30                                                385                                               2.3486543426466586E-14
30                                                390                                               2.352248103776626E-14
30                                                395                                               2.3555948585619763E-14
30                                                400                                               2.3614979528961245E-14
30                                                405                                               2.369751227092776E-14
30                                                410                                               2.3777992023380458E-14
30                                                415                                               2.3862054813392057E-14
30                                                420                                               2.3954688832750863E-14
30                                                425                                               2.4045234025380778E-14
30                                                430                                               2.413382252350721E-14
30                                                435                                               2.4321449772183627E-14
30                                                440                                               2.452187526592564E-14
30                                                445                                               2.472427535640589E-14
30                                                450                                               2.4928856786403728E-14
30                                                455                                               2.515691398066595E-14
30                                                460                                               2.5392104751291038E-14
30                                                465                                               2.563000510072943E-14
30                                                470                                               2.5870821831937168E-14
30                                                475                                               2.63188508873678E-14
30                                                480                                               2.6881814375866173E-14
30                                                485                                               2.749009648840549E-14