% Model:              Simulação_oficial_V1.mph
% Version:            COMSOL 6.1.0.282
% Date:               Oct 29 2025, 20:22
% Table:              Table 7 - Volume Integration 2
% angle                                           lambda                                            Electric field norm (V*m^2)
0                                                 300                                               2.2267799369329935E-14
0                                                 305                                               2.2302034411921443E-14
0                                                 310                                               2.2362084306819702E-14
0                                                 315                                               2.239119991633116E-14
0                                                 320                                               2.2413159874557E-14
0                                                 325                                               2.263983156673982E-14
0                                                 330                                               2.288889362137685E-14
0                                                 335                                               2.3008827161885382E-14
0                                                 340                                               2.3070180126345104E-14
0                                                 345                                               2.309720109575655E-14
0                                                 350                                               2.3089528890901015E-14
0                                                 355                                               2.309559652716861E-14
0                                                 360                                               2.3186631562913368E-14
0                                                 365                                               2.3278548384870003E-14
0                                                 370                                               2.3370344058537187E-14
0                                                 375                                               2.3461853531205668E-14
0                                                 380                                               2.3554541266023964E-14
0                                                 385                                               2.359487973942655E-14
0                                                 390                                               2.3611527251606923E-14
0                                                 395                                               2.3627120537550297E-14
0                                                 400                                               2.3668994882034342E-14
0                                                 405                                               2.3735464189406467E-14
0                                                 410                                               2.3801477822512603E-14
0                                                 415                                               2.386720591468104E-14
0                                                 420                                               2.3932568353756166E-14
0                                                 425                                               2.3997188086839055E-14
0                                                 430                                               2.406109264940468E-14
0                                                 435                                               2.4234394147451472E-14
0                                                 440                                               2.4421294894787234E-14
0                                                 445                                               2.4609674236388693E-14
0                                                 450                                               2.479953695469945E-14
0                                                 455                                               2.4991154785244988E-14
0                                                 460                                               2.518359821371147E-14
0                                                 465                                               2.5376740744629902E-14
0                                                 470                                               2.557058880032832E-14
0                                                 475                                               2.602670040222199E-14
0                                                 480                                               2.6603610578582175E-14
0                                                 485                                               2.7204142873109536E-14
0                                                 490                                               2.7830311382820813E-14
0                                                 495                                               2.848454784145971E-14
0                                                 500                                               2.948986168415243E-14
0                                                 505                                               3.066180348067861E-14
0                                                 510                                               3.1951549163623715E-14
0                                                 515                                               3.337900165182848E-14
0                                                 520                                               3.4970575753694324E-14
0                                                 525                                               3.59737898437299E-14
0                                                 530                                               3.6892710501245866E-14
0                                                 535                                               3.790018752174569E-14
0                                                 540                                               3.900552457711472E-14
0                                                 545                                               4.0211556400860676E-14
0                                                 550                                               4.140216305516385E-14
0                                                 555                                               4.236568159398698E-14
0                                                 560                                               4.338414893820883E-14
0                                                 565                                               4.447014997354002E-14
0                                                 570                                               4.562936135731197E-14
0                                                 575                                               4.686815819916467E-14
0                                                 580                                               4.8229032804480204E-14
0                                                 585                                               4.959354959690192E-14
0                                                 590                                               5.111281465327214E-14
0                                                 595                                               5.301639017543783E-14
0                                                 600                                               5.537039692132171E-14
0                                                 605                                               5.820869639793972E-14
0                                                 610                                               6.145410681793194E-14
0                                                 615                                               6.488813774527524E-14
0                                                 620                                               6.776544973527896E-14
0                                                 625                                               6.995778614777146E-14
0                                                 630                                               7.149555621853977E-14
0                                                 635                                               7.245850467072037E-14
0                                                 640                                               7.320408323898749E-14
0                                                 645                                               7.396402283206067E-14
0                                                 650                                               7.451276862138336E-14
0                                                 655                                               7.433908724923474E-14
0                                                 660                                               7.298121563851843E-14
0                                                 665                                               7.001304576229245E-14
0                                                 670                                               6.663810087633332E-14
0                                                 675                                               6.347091742188691E-14
0                                                 680                                               6.11864117596258E-14
0                                                 685                                               6.029263149500705E-14
0                                                 690                                               6.091175638926868E-14
0                                                 695                                               6.290899538457618E-14
0                                                 700                                               6.614437071126261E-14
0                                                 705                                               7.039320678773466E-14
0                                                 710                                               7.458883917619373E-14
0                                                 715                                               7.801924562578658E-14
0                                                 720                                               7.897855552104928E-14
0                                                 725                                               7.607709827643816E-14
0                                                 730                                               6.970755184713905E-14
0                                                 735                                               6.190840133287183E-14
0                                                 740                                               5.4678158015997705E-14
0                                                 745                                               4.896350556480521E-14
0                                                 750                                               4.4741474444517743E-14
0                                                 755                                               4.156703465523491E-14
0                                                 760                                               3.9070072531852014E-14
0                                                 765                                               3.697773084446006E-14
0                                                 770                                               3.515834303293427E-14
0                                                 775                                               3.354368939148039E-14
0                                                 780                                               3.209105671469384E-14
0                                                 785                                               3.077075203166345E-14
0                                                 790                                               2.9560989379298587E-14
0                                                 795                                               2.844543979429988E-14
0                                                 800                                               2.7411622112874322E-14
15                                                300                                               2.2051951115722642E-14
15                                                305                                               2.21238784285522E-14
15                                                310                                               2.221176098066504E-14
15                                                315                                               2.2268303046689075E-14
15                                                320                                               2.2314765551689564E-14
15                                                325                                               2.253892552059895E-14
15                                                330                                               2.2781801273496564E-14
15                                                335                                               2.2910345052232145E-14
15                                                340                                               2.2985556425310227E-14
15                                                345                                               2.3028182407979075E-14
15                                                350                                               2.303796500216494E-14
15                                                355                                               2.3057945104479637E-14
15                                                360                                               2.3149973100237292E-14
15                                                365                                               2.3242518006321665E-14
15                                                370                                               2.3334430955173314E-14
15                                                375                                               2.3425558334564842E-14
15                                                380                                               2.3517674316920167E-14
15                                                385                                               2.3563495618136286E-14
15                                                390                                               2.3587958544326888E-14
15                                                395                                               2.3611036149187802E-14
15                                                400                                               2.365775788373875E-14
15                                                405                                               2.3726647111639268E-14
15                                                410                                               2.379483640438447E-14
15                                                415                                               2.3862656468985807E-14
15                                                420                                               2.39301495006701E-14
15                                                425                                               2.3996672819388634E-14
15                                                430                                               2.406227211464019E-14
15                                                435                                               2.4227892536459784E-14
15                                                440                                               2.4405960107805673E-14
15                                                445                                               2.458538976097055E-14
15                                                450                                               2.4766198914748857E-14
15                                                455                                               2.49490898156348E-14
15                                                460                                               2.5132904974212484E-14
15                                                465                                               2.531745537616352E-14
15                                                470                                               2.5502768571397392E-14
15                                                475                                               2.5929835477969274E-14
15                                                480                                               2.6469393047480053E-14
15                                                485                                               2.703238652257024E-14
15                                                490                                               2.762109175875755E-14
15                                                495                                               2.823828961565597E-14
15                                                500                                               2.917764969429832E-14
15                                                505                                               3.02716368818474E-14
15                                                510                                               3.147593356648411E-14
15                                                515                                               3.280853698623655E-14
15                                                520                                               3.42936632568111E-14
15                                                525                                               3.518920552783702E-14
15                                                530                                               3.598016489506416E-14
15                                                535                                               3.682883858355785E-14
15                                                540                                               3.773719548149648E-14
15                                                545                                               3.870396667880681E-14
15                                                550                                               3.9635121812585313E-14
15                                                555                                               4.03747807511156E-14
15                                                560                                               4.116836578106939E-14
15                                                565                                               4.20318723734342E-14
15                                                570                                               4.297735752743815E-14
15                                                575                                               4.402570689963157E-14
15                                                580                                               4.5239039003727463E-14
15                                                585                                               4.658097448948829E-14
15                                                590                                               4.8193182834416E-14
15                                                595                                               5.024247044296825E-14
15                                                600                                               5.271121809528281E-14
15                                                605                                               5.5494972816702444E-14
15                                                610                                               5.839994321310362E-14
15                                                615                                               6.124028730380641E-14
15                                                620                                               6.373594310387074E-14
15                                                625                                               6.62110005474277E-14
15                                                630                                               6.89124143263099E-14
15                                                635                                               7.171446871992622E-14
15                                                640                                               7.436569069590421E-14
15                                                645                                               7.656119761483862E-14
15                                                650                                               7.800661165133655E-14
15                                                655                                               7.850351516928734E-14
15                                                660                                               7.800309201772737E-14
15                                                665                                               7.648309486264549E-14
15                                                670                                               7.569103130599196E-14
15                                                675                                               7.652360686960481E-14
15                                                680                                               7.918229658509213E-14
15                                                685                                               8.290803314539198E-14
15                                                690                                               8.599740891654604E-14
15                                                695                                               8.600342073135398E-14
15                                                700                                               8.140343939463726E-14
15                                                705                                               7.367408789060074E-14
15                                                710                                               6.606769953398876E-14
15                                                715                                               6.021322310509452E-14
15                                                720                                               5.590698515332794E-14
15                                                725                                               5.253002771228551E-14
15                                                730                                               4.9672262747156475E-14
15                                                735                                               4.714080707090822E-14
15                                                740                                               4.4849448466958777E-14
15                                                745                                               4.2754891909492294E-14
15                                                750                                               4.083082955717206E-14
15                                                755                                               3.905820714220412E-14
15                                                760                                               3.7444157775933916E-14
15                                                765                                               3.595567132136376E-14
15                                                770                                               3.457532771095077E-14
15                                                775                                               3.3293024895997765E-14
15                                                780                                               3.2099836477818144E-14
15                                                785                                               3.0987857890988936E-14
15                                                790                                               2.995007765590892E-14
15                                                795                                               2.898027202997532E-14
15                                                800                                               2.8072911390483605E-14
30                                                300                                               2.1171706729602095E-14
30                                                305                                               2.1318838473432722E-14
30                                                310                                               2.146254558579433E-14
30                                                315                                               2.15680770377024E-14
30                                                320                                               2.1655773525219003E-14
30                                                325                                               2.189109912211557E-14
30                                                330                                               2.2139196376758836E-14
30                                                335                                               2.2286697917119566E-14
30                                                340                                               2.2384630698598662E-14
30                                                345                                               2.2449839386052783E-14
30                                                350                                               2.2482447509959057E-14
30                                                355                                               2.251991236912938E-14
30                                                360                                               2.261147529809762E-14
30                                                365                                               2.270267314897146E-14
30                                                370                                               2.2791790080227236E-14
30                                                375                                               2.2878553458836302E-14
30                                                380                                               2.2965776849471404E-14
30                                                385                                               2.301460664207079E-14
30                                                390                                               2.304505535795729E-14
30                                                395                                               2.3073547484914305E-14
30                                                400                                               2.312348059301619E-14
30                                                405                                               2.31935736333047E-14
30                                                410                                               2.3262576515375865E-14
30                                                415                                               2.333157360734167E-14
30                                                420                                               2.3401295644085448E-14
30                                                425                                               2.3469743583377762E-14
30                                                430                                               2.3536995880908318E-14
30                                                435                                               2.369657522689392E-14
30                                                440                                               2.3867849198039806E-14
30                                                445                                               2.4040601526803635E-14
30                                                450                                               2.4214874274056663E-14
30                                                455                                               2.4394193059961586E-14
30                                                460                                               2.4575406586014555E-14
30                                                465                                               2.475775803365462E-14
30                                                470                                               2.4941304891471742E-14
30                                                475                                               2.5346138018606965E-14
30                                                480                                               2.5857011089517864E-14
30                                                485                                               2.6393600070320286E-14