% Model:              Simulação_oficial_V2.mph
% Version:            COMSOL 6.1.0.282
% Date:               Nov 17 2025, 14:53
% Table:              Table 7 - Volume Integration 2
% angle                                           lambda                                            Electric field norm (V*m^2)
0                                                 300                                               1.43589978277816E-14
0                                                 305                                               1.4416680799729737E-14
0                                                 310                                               1.4475709889614833E-14
0                                                 315                                               1.4503221990412227E-14
0                                                 320                                               1.4517786160321923E-14
0                                                 325                                               1.4670918636192318E-14
0                                                 330                                               1.4838747633928817E-14
0                                                 335                                               1.491686453648831E-14
0                                                 340                                               1.4952224564789622E-14
0                                                 345                                               1.4960182397849798E-14
0                                                 350                                               1.494090801916728E-14
0                                                 355                                               1.4927905392177218E-14
0                                                 360                                               1.49616209150204E-14
0                                                 365                                               1.4995693461717964E-14
0                                                 370                                               1.5027893254000625E-14
0                                                 375                                               1.5057428204239698E-14
0                                                 380                                               1.508746977287624E-14
0                                                 385                                               1.5086867155915E-14
0                                                 390                                               1.5072340064604143E-14
0                                                 395                                               1.5057123775791962E-14
0                                                 400                                               1.5062979916200222E-14
0                                                 405                                               1.508859829685594E-14
0                                                 410                                               1.5114091612402802E-14
0                                                 415                                               1.514162530962426E-14
0                                                 420                                               1.5173135615324914E-14
0                                                 425                                               1.5204455416038322E-14
0                                                 430                                               1.5235612132316673E-14
0                                                 435                                               1.535125714281433E-14
0                                                 440                                               1.5478789033754034E-14
0                                                 445                                               1.5608989564809753E-14
0                                                 450                                               1.5741908571282615E-14
0                                                 455                                               1.5886285653151402E-14
0                                                 460                                               1.6035108071641395E-14
0                                                 465                                               1.6186477706328632E-14
0                                                 470                                               1.6340429663479793E-14
0                                                 475                                               1.66892747882068E-14
0                                                 480                                               1.7139252377871132E-14
0                                                 485                                               1.7622269017683437E-14
0                                                 490                                               1.814190941377886E-14
0                                                 495                                               1.8702374995902612E-14
0                                                 500                                               1.9513727865757635E-14
0                                                 505                                               2.0483249726320398E-14
0                                                 510                                               2.1597840203283272E-14
0                                                 515                                               2.2893980834936103E-14
0                                                 520                                               2.4422473776957876E-14
0                                                 525                                               2.5220201861249588E-14
0                                                 530                                               2.5832761697137095E-14
0                                                 535                                               2.6455163825239704E-14
0                                                 540                                               2.7091574736753274E-14
0                                                 545                                               2.7759897542886293E-14
0                                                 550                                               2.8383492300863705E-14
0                                                 555                                               2.878768593780876E-14
0                                                 560                                               2.92589019407212E-14
0                                                 565                                               2.980180170717865E-14
0                                                 570                                               3.038494847013999E-14
0                                                 575                                               3.0911271441965617E-14
0                                                 580                                               3.1203764352074914E-14
0                                                 585                                               3.075201467470714E-14
0                                                 590                                               2.9567453786525295E-14
0                                                 595                                               2.7979655901680895E-14
0                                                 600                                               2.6216329095910207E-14
0                                                 605                                               2.4495911002606586E-14
0                                                 610                                               2.2939002325340255E-14
0                                                 615                                               2.1566871446072624E-14
0                                                 620                                               2.0476808483071602E-14
0                                                 625                                               1.9603745178689943E-14
0                                                 630                                               1.8887675559472578E-14
0                                                 635                                               1.832505062945795E-14
0                                                 640                                               1.7900626563921367E-14
0                                                 645                                               1.7574976893421823E-14
0                                                 650                                               1.729284631180768E-14
0                                                 655                                               1.7050411927907755E-14
0                                                 660                                               1.6917989544713312E-14
0                                                 665                                               1.6926517335646847E-14
0                                                 670                                               1.7060159037028688E-14
0                                                 675                                               1.730894351375672E-14
0                                                 680                                               1.7670921484797862E-14
0                                                 685                                               1.815085288860287E-14
0                                                 690                                               1.8758457055173292E-14
0                                                 695                                               1.950813169406738E-14
0                                                 700                                               2.041988380876837E-14
0                                                 705                                               2.1512357042488708E-14
0                                                 710                                               2.2739992997030713E-14
0                                                 715                                               2.4188489455334077E-14
0                                                 720                                               2.5893258318391842E-14
0                                                 725                                               2.7896513054750197E-14
0                                                 730                                               3.024740245864463E-14
0                                                 735                                               3.299807253420855E-14
0                                                 740                                               3.619131304002491E-14
0                                                 745                                               3.9830859408776137E-14
0                                                 750                                               4.382039973760217E-14
0                                                 755                                               4.786225147236115E-14
0                                                 760                                               5.12083622716588E-14
0                                                 765                                               5.3149810320106606E-14
0                                                 770                                               5.3069471567267784E-14
0                                                 775                                               5.092713028912745E-14
0                                                 780                                               4.734516836216017E-14
0                                                 785                                               4.316376880206012E-14
0                                                 790                                               3.90255374399652E-14
0                                                 795                                               3.527181861478461E-14
0                                                 800                                               3.202193099011265E-14
15                                                300                                               1.4377033658708434E-14
15                                                305                                               1.440269531802881E-14
15                                                310                                               1.443559780842316E-14
15                                                315                                               1.443901842754743E-14
15                                                320                                               1.4432125197577737E-14
15                                                325                                               1.457670674574723E-14
15                                                330                                               1.473932698702279E-14
15                                                335                                               1.4806706125970997E-14
15                                                340                                               1.4829685528071427E-14
15                                                345                                               1.4825013656208766E-14
15                                                350                                               1.479265905276446E-14
15                                                355                                               1.4768613241423923E-14
15                                                360                                               1.4797405191776448E-14
15                                                365                                               1.4826940959079677E-14
15                                                370                                               1.485494621485484E-14
15                                                375                                               1.4880539187706978E-14
15                                                380                                               1.4906819825013502E-14
15                                                385                                               1.4899999055468867E-14
15                                                390                                               1.4878431253779974E-14
15                                                395                                               1.4856470174998263E-14
15                                                400                                               1.4857134287683254E-14
15                                                405                                               1.4878999584297167E-14
15                                                410                                               1.4900973190299093E-14
15                                                415                                               1.492528352563757E-14
15                                                420                                               1.495396397628749E-14
15                                                425                                               1.498268244071466E-14
15                                                430                                               1.501144786416663E-14
15                                                435                                               1.512978086877181E-14
15                                                440                                               1.526079101270437E-14
15                                                445                                               1.5394711202072125E-14
15                                                450                                               1.5531583026700635E-14
15                                                455                                               1.5680738455974486E-14
15                                                460                                               1.583472033074421E-14
15                                                465                                               1.5991490930256788E-14
15                                                470                                               1.6151075014761444E-14
15                                                475                                               1.651552116497234E-14
15                                                480                                               1.6985944939073208E-14
15                                                485                                               1.7490642415918712E-14
15                                                490                                               1.80332384266063E-14
15                                                495                                               1.861796154576945E-14
15                                                500                                               1.9462690889281035E-14
15                                                505                                               2.047099891543015E-14
15                                                510                                               2.1629216361924017E-14
15                                                515                                               2.2975323970296348E-14
15                                                520                                               2.4563628748214142E-14
15                                                525                                               2.5405343544158914E-14
15                                                530                                               2.606838504774768E-14
15                                                535                                               2.6751427719437222E-14
15                                                540                                               2.7449238243728287E-14
15                                                545                                               2.8167482943465E-14
15                                                550                                               2.881808874681188E-14
15                                                555                                               2.9220466065459267E-14
15                                                560                                               2.9670668608182136E-14
15                                                565                                               3.012316407648501E-14
15                                                570                                               3.044708936821432E-14
15                                                575                                               3.045084318347683E-14
15                                                580                                               2.998719692344583E-14
15                                                585                                               2.888611389190616E-14
15                                                590                                               2.7531896454414915E-14
15                                                595                                               2.6359181989951398E-14
15                                                600                                               2.559448616090285E-14
15                                                605                                               2.535225052483546E-14
15                                                610                                               2.549267208484533E-14
15                                                615                                               2.5537642973049617E-14
15                                                620                                               2.5005829735798765E-14
15                                                625                                               2.4010550572946626E-14
15                                                630                                               2.2788807919240065E-14
15                                                635                                               2.152798501738857E-14
15                                                640                                               2.0360610690347137E-14
15                                                645                                               1.939541619547222E-14
15                                                650                                               1.867633736127262E-14
15                                                655                                               1.8180584602564448E-14
15                                                660                                               1.7869823283869695E-14
15                                                665                                               1.7707380379015473E-14
15                                                670                                               1.76658011765871E-14
15                                                675                                               1.7739597774989624E-14
15                                                680                                               1.792899877422194E-14
15                                                685                                               1.8239173639880056E-14
15                                                690                                               1.8680293646529335E-14
15                                                695                                               1.9267957607494363E-14
15                                                700                                               2.0024197077076268E-14
15                                                705                                               2.0972657569480738E-14
15                                                710                                               2.2082119820482116E-14
15                                                715                                               2.3445541653515552E-14
15                                                720                                               2.5120422814835666E-14
15                                                725                                               2.7176573424288824E-14
15                                                730                                               2.969109937326645E-14
15                                                735                                               3.2738585641240534E-14
15                                                740                                               3.6365592517381877E-14
15                                                745                                               4.051963035867319E-14
15                                                750                                               4.489978604010832E-14
15                                                755                                               4.875973215421683E-14
15                                                760                                               5.079637065951218E-14
15                                                765                                               5.0275438866103454E-14
15                                                770                                               4.74061087605097E-14
15                                                775                                               4.322246503811307E-14
15                                                780                                               3.878127816725073E-14
15                                                785                                               3.4698114176298427E-14
15                                                790                                               3.1196212962348586E-14
15                                                795                                               2.8287730677222998E-14
15                                                800                                               2.590112234354577E-14
30                                                300                                               1.4644073816375856E-14
30                                                305                                               1.4639354126240967E-14
30                                                310                                               1.464641254661849E-14
30                                                315                                               1.4625354566582208E-14
30                                                320                                               1.4596128851577208E-14
30                                                325                                               1.4730848220600588E-14
30                                                330                                               1.4887353208213058E-14
30                                                335                                               1.4942169099121974E-14
30                                                340                                               1.4950420186309794E-14
30                                                345                                               1.493078332226707E-14
30                                                350                                               1.488293240809349E-14
30                                                355                                               1.4846162615127112E-14
30                                                360                                               1.4872729173497238E-14
30                                                365                                               1.4900566873180828E-14
30                                                370                                               1.4927725451001863E-14
30                                                375                                               1.4953382407444874E-14
30                                                380                                               1.4980049765637834E-14
30                                                385                                               1.4968587766253433E-14
30                                                390                                               1.494039190405399E-14
30                                                395                                               1.4912072736527676E-14
30                                                400                                               1.4907950009250394E-14
30                                                405                                               1.492654021962435E-14
30                                                410                                               1.4945521072162626E-14
30                                                415                                               1.496674134730571E-14
30                                                420                                               1.4991919304127146E-14
30                                                425                                               1.501741112962263E-14
30                                                430                                               1.5043204204367168E-14
30                                                435                                               1.5165002781902714E-14
30                                                440                                               1.5300448345283727E-14
30                                                445                                               1.5439068269201844E-14
30                                                450                                               1.55808861371293E-14
30                                                455                                               1.5734115251595937E-14
30                                                460                                               1.589212416552128E-14
30                                                465                                               1.605309132116441E-14
30                                                470                                               1.6217018195194695E-14
30                                                475                                               1.6603082103265654E-14
30                                                480                                               1.7102707368183466E-14
30                                                485                                               1.7637662545852277E-14