% Model:              Simulação_oficial_V2.mph
% Version:            COMSOL 6.1.0.282
% Date:               Nov 10 2025, 16:30
% Table:              Table 7 - Volume Integration 2
% angle                                           lambda                                            Electric field norm (V*m^2)
0                                                 300                                               5.048705482416474E-15
0                                                 305                                               5.0598404196054415E-15
0                                                 310                                               5.0727212535762756E-15
0                                                 315                                               5.07984207348701E-15
0                                                 320                                               5.0848540164748195E-15
0                                                 325                                               5.119970334633358E-15
0                                                 330                                               5.158499430202687E-15
0                                                 335                                               5.1781828151318655E-15
0                                                 340                                               5.188779080670889E-15
0                                                 345                                               5.193346653741672E-15
0                                                 350                                               5.1919238593503015E-15
0                                                 355                                               5.191604333160097E-15
0                                                 360                                               5.200498626844272E-15
0                                                 365                                               5.209493078809691E-15
0                                                 370                                               5.218045965590231E-15
0                                                 375                                               5.225994600841259E-15
0                                                 380                                               5.234100890352971E-15
0                                                 385                                               5.236149862080841E-15
0                                                 390                                               5.235420350600791E-15
0                                                 395                                               5.2345402831121864E-15
0                                                 400                                               5.237946143081708E-15
0                                                 405                                               5.245318065581375E-15
0                                                 410                                               5.252586316104594E-15
0                                                 415                                               5.260173009028415E-15
0                                                 420                                               5.268432536612387E-15
0                                                 425                                               5.276552923146384E-15
0                                                 430                                               5.284545260751613E-15
0                                                 435                                               5.309658885387671E-15
0                                                 440                                               5.33716180974642E-15
0                                                 445                                               5.3651866906414265E-15
0                                                 450                                               5.39375192876674E-15
0                                                 455                                               5.424789939100397E-15
0                                                 460                                               5.4569408087234634E-15
0                                                 465                                               5.489830741809644E-15
0                                                 470                                               5.5234968261702646E-15
0                                                 475                                               5.597089581284266E-15
0                                                 480                                               5.690926617415244E-15
0                                                 485                                               5.7910622225407075E-15
0                                                 490                                               5.89824772273507E-15
0                                                 495                                               6.013379718192138E-15
0                                                 500                                               6.161471663831261E-15
0                                                 505                                               6.326851573835387E-15
0                                                 510                                               6.506522087368674E-15
0                                                 515                                               6.703340562768586E-15
0                                                 520                                               6.921420353792882E-15
0                                                 525                                               6.995015759159617E-15
0                                                 530                                               7.035001799102806E-15
0                                                 535                                               7.078119594234088E-15
0                                                 540                                               7.126274683373376E-15
0                                                 545                                               7.18108860578397E-15
0                                                 550                                               7.228957013618293E-15
0                                                 555                                               7.241287200579134E-15
0                                                 560                                               7.244514731989022E-15
0                                                 565                                               7.228794204843666E-15
0                                                 570                                               7.185365011039891E-15
0                                                 575                                               7.113717672809888E-15
0                                                 580                                               7.02699776293688E-15
0                                                 585                                               6.932619620477662E-15
0                                                 590                                               6.848947567915232E-15
0                                                 595                                               6.783174207285681E-15
0                                                 600                                               6.73239376677154E-15
0                                                 605                                               6.6990432615238445E-15
0                                                 610                                               6.687835363424236E-15
0                                                 615                                               6.7034678022735914E-15
0                                                 620                                               6.742183878954467E-15
0                                                 625                                               6.8018098309763866E-15
0                                                 630                                               6.884356336843159E-15
0                                                 635                                               6.989622889560122E-15
0                                                 640                                               7.11769535803033E-15
0                                                 645                                               7.26873128862932E-15
0                                                 650                                               7.438882508643005E-15
0                                                 655                                               7.613309052549623E-15
0                                                 660                                               7.771219575242408E-15
0                                                 665                                               7.894116176665572E-15
0                                                 670                                               8.014451383223673E-15
0                                                 675                                               8.13939436760067E-15
0                                                 680                                               8.284633423325715E-15
0                                                 685                                               8.457460990197236E-15
0                                                 690                                               8.657266461535164E-15
0                                                 695                                               8.882620596085364E-15
0                                                 700                                               9.133735875557352E-15
0                                                 705                                               9.410904135455192E-15
0                                                 710                                               9.701197694620552E-15
0                                                 715                                               1.0022789604130981E-14
0                                                 720                                               1.0380637898542402E-14
0                                                 725                                               1.0779606898575203E-14
0                                                 730                                               1.122089522605556E-14
0                                                 735                                               1.1691763308233455E-14
0                                                 740                                               1.2144216266104724E-14
0                                                 745                                               1.248592127627115E-14
0                                                 750                                               1.2670404517363071E-14
0                                                 755                                               1.281831508559742E-14
0                                                 760                                               1.3082533097055235E-14
0                                                 765                                               1.3508211924454654E-14
0                                                 770                                               1.4076405873978292E-14
0                                                 775                                               1.4765461065504138E-14
0                                                 780                                               1.556804480928472E-14
0                                                 785                                               1.648982402723367E-14
0                                                 790                                               1.7545871607894898E-14
0                                                 795                                               1.875771247222069E-14
0                                                 800                                               2.0149525863200066E-14
15                                                300                                               5.205400860340717E-15
15                                                305                                               5.2176051245105545E-15
15                                                310                                               5.231278067263893E-15
15                                                315                                               5.239275012832418E-15
15                                                320                                               5.245117554548938E-15
15                                                325                                               5.279771454954136E-15
15                                                330                                               5.317737482706459E-15
15                                                335                                               5.337339583088294E-15
15                                                340                                               5.348028260530831E-15
15                                                345                                               5.352854473638596E-15
15                                                350                                               5.3518472812295565E-15
15                                                355                                               5.352001669645873E-15
15                                                360                                               5.361888717844418E-15
15                                                365                                               5.371891508458497E-15
15                                                370                                               5.381572273095207E-15
15                                                375                                               5.390813108869884E-15
15                                                380                                               5.400234408970678E-15
15                                                385                                               5.403258201322466E-15
15                                                390                                               5.403338960393213E-15
15                                                395                                               5.403255497697811E-15
15                                                400                                               5.407262294777322E-15
15                                                405                                               5.41505966673624E-15
15                                                410                                               5.422748799006407E-15
15                                                415                                               5.430623659942264E-15
15                                                420                                               5.4389148274160535E-15
15                                                425                                               5.447058462573947E-15
15                                                430                                               5.455066024333012E-15
15                                                435                                               5.479755802358217E-15
15                                                440                                               5.50677138210618E-15
15                                                445                                               5.5342918122337795E-15
15                                                450                                               5.562334293744097E-15
15                                                455                                               5.592303074705509E-15
15                                                460                                               5.623232869074448E-15
15                                                465                                               5.654861450794059E-15
15                                                470                                               5.6872229929257474E-15
15                                                475                                               5.7600127834892436E-15
15                                                480                                               5.853164404064598E-15
15                                                485                                               5.9524941238572425E-15
15                                                490                                               6.058729922330032E-15
15                                                495                                               6.172738854341747E-15
15                                                500                                               6.324656755159336E-15
15                                                505                                               6.49620605018513E-15
15                                                510                                               6.683989579085055E-15
15                                                515                                               6.8917837358157384E-15
15                                                520                                               7.125005223916188E-15
15                                                525                                               7.215369446105052E-15
15                                                530                                               7.270685066045068E-15
15                                                535                                               7.32732752163786E-15
15                                                540                                               7.3874281112583E-15
15                                                545                                               7.454235219757508E-15
15                                                550                                               7.515722856882948E-15
15                                                555                                               7.542223144003236E-15
15                                                560                                               7.56250551926828E-15
15                                                565                                               7.568848551698845E-15
15                                                570                                               7.559528560786541E-15
15                                                575                                               7.544592006252038E-15
15                                                580                                               7.542354527958487E-15
15                                                585                                               7.538637842392245E-15
15                                                590                                               7.522894753585515E-15
15                                                595                                               7.505803707730686E-15
15                                                600                                               7.50517982098282E-15
15                                                605                                               7.541020481473454E-15
15                                                610                                               7.60249698643116E-15
15                                                615                                               7.655450372460644E-15
15                                                620                                               7.689840695509873E-15
15                                                625                                               7.731880634183249E-15
15                                                630                                               7.800420551205778E-15
15                                                635                                               7.902389131125956E-15
15                                                640                                               8.041352504645319E-15
15                                                645                                               8.221360106061058E-15
15                                                650                                               8.448581374603702E-15
15                                                655                                               8.731420387417859E-15
15                                                660                                               9.063388243367827E-15
15                                                665                                               9.31634991422836E-15
15                                                670                                               9.434836329135136E-15
15                                                675                                               9.411363892838779E-15
15                                                680                                               9.387277144060882E-15
15                                                685                                               9.455013660245217E-15
15                                                690                                               9.61364940369536E-15
15                                                695                                               9.840018244922634E-15
15                                                700                                               1.0118452161594868E-14
15                                                705                                               1.044056560954281E-14
15                                                710                                               1.078631488159423E-14
15                                                715                                               1.1174870629023505E-14
15                                                720                                               1.161229918164097E-14
15                                                725                                               1.2106423188891247E-14
15                                                730                                               1.26647175111151E-14
15                                                735                                               1.3287396062726047E-14
15                                                740                                               1.3946932778055914E-14
15                                                745                                               1.4543324095259342E-14
15                                                750                                               1.4882143966288018E-14
15                                                755                                               1.4859982251132496E-14
15                                                760                                               1.471476627751474E-14
15                                                765                                               1.4764781727855107E-14
15                                                770                                               1.510172612378827E-14
15                                                775                                               1.568176369430885E-14
15                                                780                                               1.6447284371784025E-14
15                                                785                                               1.7364663354554614E-14
15                                                790                                               1.8423089284302562E-14
15                                                795                                               1.962680299531112E-14
15                                                800                                               2.0988751367881893E-14
30                                                300                                               5.265907710207755E-15
30                                                305                                               5.278863931390528E-15
30                                                310                                               5.2931430596495E-15
30                                                315                                               5.301570268045228E-15
30                                                320                                               5.307720627507961E-15
30                                                325                                               5.342971641785434E-15
30                                                330                                               5.381536546115901E-15
30                                                335                                               5.401449665198314E-15
30                                                340                                               5.412301448798995E-15
30                                                345                                               5.417201289736422E-15
30                                                350                                               5.41616896898166E-15
30                                                355                                               5.416325725822925E-15
30                                                360                                               5.4265432511004486E-15
30                                                365                                               5.436873904722127E-15
30                                                370                                               5.4468947489266604E-15
30                                                375                                               5.456496771196973E-15
30                                                380                                               5.4662844791400345E-15
30                                                385                                               5.469459046381029E-15
30                                                390                                               5.4695876059081046E-15
30                                                395                                               5.469542786836954E-15
30                                                400                                               5.473636975088618E-15
30                                                405                                               5.481571293240575E-15
30                                                410                                               5.4893963100170515E-15
30                                                415                                               5.4973866201592495E-15
30                                                420                                               5.5057549554647155E-15
30                                                425                                               5.513976016093324E-15
30                                                430                                               5.5220613585739984E-15
30                                                435                                               5.5470998939205186E-15
30                                                440                                               5.574485086271601E-15
30                                                445                                               5.60236398780179E-15
30                                                450                                               5.630752315624691E-15
30                                                455                                               5.660992964661789E-15
30                                                460                                               5.6921701019394015E-15
30                                                465                                               5.724033461236701E-15
30                                                470                                               5.756615549664394E-15
30                                                475                                               5.830050980444351E-15
30                                                480                                               5.923771735531559E-15
30                                                485                                               6.023330678078213E-15
30                                                490                                               6.129385885275994E-15