% Model:              Simulação_oficial_V2.mph
% Version:            COMSOL 6.1.0.282
% Date:               Nov 17 2025, 16:39
% Table:              Table 7 - Volume Integration 2
% angle                                           lambda                                            Electric field norm (V*m^2)
0                                                 300                                               1.5220548038848525E-14
0                                                 305                                               1.5275633668305477E-14
0                                                 310                                               1.533242235133292E-14
0                                                 315                                               1.5358205512473044E-14
0                                                 320                                               1.537148860479207E-14
0                                                 325                                               1.5523733423246834E-14
0                                                 330                                               1.5691572204868075E-14
0                                                 335                                               1.576896957194798E-14
0                                                 340                                               1.5803337098927797E-14
0                                                 345                                               1.5810549763466785E-14
0                                                 350                                               1.579069173580727E-14
0                                                 355                                               1.5777922809661645E-14
0                                                 360                                               1.5815568513489037E-14
0                                                 365                                               1.585366111460499E-14
0                                                 370                                               1.589027514234204E-14
0                                                 375                                               1.5924730662067993E-14
0                                                 380                                               1.5959759156938672E-14
0                                                 385                                               1.5962041325031166E-14
0                                                 390                                               1.5949482022645044E-14
0                                                 395                                               1.5936233367243345E-14
0                                                 400                                               1.5944024457793617E-14
0                                                 405                                               1.597156407989911E-14
0                                                 410                                               1.5998995206063134E-14
0                                                 415                                               1.602812708422491E-14
0                                                 420                                               1.6060563201051295E-14
0                                                 425                                               1.609281781158424E-14
0                                                 430                                               1.6124914613340803E-14
0                                                 435                                               1.6242245976838E-14
0                                                 440                                               1.6371613389345888E-14
0                                                 445                                               1.650371701247102E-14
0                                                 450                                               1.6638604187369145E-14
0                                                 455                                               1.6783603175384568E-14
0                                                 460                                               1.6932731216185546E-14
0                                                 465                                               1.7084380497265343E-14
0                                                 470                                               1.7238572512621038E-14
0                                                 475                                               1.7594820665562256E-14
0                                                 480                                               1.8056148301934596E-14
0                                                 485                                               1.8551929059546724E-14
0                                                 490                                               1.908580550506712E-14
0                                                 495                                               1.9661986992257413E-14
0                                                 500                                               2.052062164796468E-14
0                                                 505                                               2.1560902528541685E-14
0                                                 510                                               2.2771986840380265E-14
0                                                 515                                               2.4201549964702632E-14
0                                                 520                                               2.5917263329606744E-14
0                                                 525                                               2.6895445932022528E-14
0                                                 530                                               2.7687525118726732E-14
0                                                 535                                               2.8487324991846853E-14
0                                                 540                                               2.927324130287303E-14
0                                                 545                                               3.002045342118336E-14
0                                                 550                                               3.058014995281628E-14
0                                                 555                                               3.072717859002233E-14
0                                                 560                                               3.075814182617962E-14
0                                                 565                                               3.066355046881242E-14
0                                                 570                                               3.0465930236914244E-14
0                                                 575                                               3.0246120553256774E-14
0                                                 580                                               3.012236281716553E-14
0                                                 585                                               3.001143023312861E-14
0                                                 590                                               2.996717811805018E-14
0                                                 595                                               3.016894251703986E-14
0                                                 600                                               3.077405972695728E-14
0                                                 605                                               3.1965044113619173E-14
0                                                 610                                               3.3839921710243506E-14
0                                                 615                                               3.6265151315387885E-14
0                                                 620                                               3.835357125437706E-14
0                                                 625                                               3.946864210376882E-14
0                                                 630                                               3.913118360752128E-14
0                                                 635                                               3.7215933531271104E-14
0                                                 640                                               3.4298879062051593E-14
0                                                 645                                               3.1109126297507505E-14
0                                                 650                                               2.814707219925745E-14
0                                                 655                                               2.568634591551427E-14
0                                                 660                                               2.3809366064102738E-14
0                                                 665                                               2.250541189241396E-14
0                                                 670                                               2.15722103461722E-14
0                                                 675                                               2.0925362848927656E-14
0                                                 680                                               2.0510788071994065E-14
0                                                 685                                               2.029834289681476E-14
0                                                 690                                               2.028573103596151E-14
0                                                 695                                               2.051038578952566E-14
0                                                 700                                               2.1023284564670666E-14
0                                                 705                                               2.1741584489916776E-14
0                                                 710                                               2.2414468011350127E-14
0                                                 715                                               2.307005966087532E-14
0                                                 720                                               2.381505273832862E-14
0                                                 725                                               2.475167703757923E-14
0                                                 730                                               2.596084645565837E-14
0                                                 735                                               2.7503975993299715E-14
0                                                 740                                               2.938367448898627E-14
0                                                 745                                               3.143594852366638E-14
0                                                 750                                               3.3347603663184704E-14
0                                                 755                                               3.5096781992393994E-14
0                                                 760                                               3.669132474161641E-14
0                                                 765                                               3.74558234726454E-14
0                                                 770                                               3.6681120945373024E-14
0                                                 775                                               3.4836429146869333E-14
0                                                 780                                               3.292556297343854E-14
0                                                 785                                               3.158298332183604E-14
0                                                 790                                               3.101918554215011E-14
0                                                 795                                               3.1218219004034503E-14
0                                                 800                                               3.207249813154423E-14
15                                                300                                               1.5335885651880785E-14
15                                                305                                               1.5386310851170734E-14
15                                                310                                               1.5438957205096493E-14
15                                                315                                               1.5460832128400308E-14
15                                                320                                               1.547045254937334E-14
15                                                325                                               1.561986355316062E-14
15                                                330                                               1.5785520021378184E-14
15                                                335                                               1.585988969181968E-14
15                                                340                                               1.589086089745733E-14
15                                                345                                               1.5894715461296006E-14
15                                                350                                               1.5871476018243013E-14
15                                                355                                               1.5855976982730437E-14
15                                                360                                               1.589399017090635E-14
15                                                365                                               1.593258545781265E-14
15                                                370                                               1.597004363505243E-14
15                                                375                                               1.600575306142048E-14
15                                                380                                               1.6042129418229072E-14
15                                                385                                               1.6044203527432752E-14
15                                                390                                               1.60307878760292E-14
15                                                395                                               1.6016729760037543E-14
15                                                400                                               1.602380653697632E-14
15                                                405                                               1.6050740509524897E-14
15                                                410                                               1.607762889341914E-14
15                                                415                                               1.6106027071194346E-14
15                                                420                                               1.613730597004231E-14
15                                                425                                               1.6168463673010037E-14
15                                                430                                               1.619952029151374E-14
15                                                435                                               1.63167581349734E-14
15                                                440                                               1.6446230224113498E-14
15                                                445                                               1.6578536244209165E-14
15                                                450                                               1.6713720481792107E-14
15                                                455                                               1.6858264402648102E-14
15                                                460                                               1.7006868584705893E-14
15                                                465                                               1.7158112655129246E-14
15                                                470                                               1.731201820534049E-14
15                                                475                                               1.7673102302610182E-14
15                                                480                                               1.814157218558369E-14
15                                                485                                               1.8644975103533416E-14
15                                                490                                               1.9187062791144412E-14
15                                                495                                               1.977218130933148E-14
15                                                500                                               2.064927555969342E-14
15                                                505                                               2.171032465149121E-14
15                                                510                                               2.2941719835903544E-14
15                                                515                                               2.4389452967448846E-14
15                                                520                                               2.6118317738785397E-14
15                                                525                                               2.70976759287475E-14
15                                                530                                               2.7890209970477567E-14
15                                                535                                               2.869219824700493E-14
15                                                540                                               2.947997859085035E-14
15                                                545                                               3.022349118239983E-14
15                                                550                                               3.077027300621343E-14
15                                                555                                               3.09048957421082E-14
15                                                560                                               3.093183805504248E-14
15                                                565                                               3.08607646771176E-14
15                                                570                                               3.072573443100425E-14
15                                                575                                               3.0589501747798165E-14
15                                                580                                               3.0524170238089E-14
15                                                585                                               3.040148134478806E-14
15                                                590                                               3.027203657463417E-14
15                                                595                                               3.032162124988951E-14
15                                                600                                               3.071863996015389E-14
15                                                605                                               3.1659770698594156E-14
15                                                610                                               3.320620878058431E-14
15                                                615                                               3.5137390928737226E-14
15                                                620                                               3.6727362490677863E-14
15                                                625                                               3.774229618547935E-14
15                                                630                                               3.819266539368218E-14
15                                                635                                               3.804849268427588E-14
15                                                640                                               3.7055155368364895E-14
15                                                645                                               3.4888474795973055E-14
15                                                650                                               3.188157492791065E-14
15                                                655                                               2.8788801171089684E-14
15                                                660                                               2.612276758084245E-14
15                                                665                                               2.4137079425280822E-14
15                                                670                                               2.2692480391099712E-14
15                                                675                                               2.168670936829003E-14
15                                                680                                               2.1025494910026397E-14
15                                                685                                               2.0630355322163358E-14
15                                                690                                               2.0444672146386757E-14
15                                                695                                               2.0438171455927493E-14
15                                                700                                               2.061541245965136E-14
15                                                705                                               2.1028938475206308E-14
15                                                710                                               2.1713010643822483E-14
15                                                715                                               2.2609911482936747E-14
15                                                720                                               2.350387749053866E-14
15                                                725                                               2.432822200704565E-14
15                                                730                                               2.5209215042533237E-14
15                                                735                                               2.6287802784516278E-14
15                                                740                                               2.7680824633057505E-14
15                                                745                                               2.9518456867365115E-14
15                                                750                                               3.1922895229029564E-14
15                                                755                                               3.4764360328847775E-14
15                                                760                                               3.707824441833748E-14
15                                                765                                               3.766170358040238E-14
15                                                770                                               3.637487478858166E-14
15                                                775                                               3.433805789726194E-14
15                                                780                                               3.2606015964847535E-14
15                                                785                                               3.162558087647274E-14
15                                                790                                               3.14491295537747E-14
15                                                795                                               3.196295370222172E-14
15                                                800                                               3.3018266693831613E-14
30                                                300                                               1.5408552551568184E-14
30                                                305                                               1.5458443093452903E-14
30                                                310                                               1.551064558945829E-14
30                                                315                                               1.553098267409816E-14
30                                                320                                               1.553860398317878E-14
30                                                325                                               1.5690399288593748E-14
30                                                330                                               1.585908541293917E-14
30                                                335                                               1.5932845999692994E-14
30                                                340                                               1.5961525904859622E-14
30                                                345                                               1.5962347860349367E-14
30                                                350                                               1.5935278045699688E-14
30                                                355                                               1.5916789739754567E-14
30                                                360                                               1.595669477007292E-14
30                                                365                                               1.5997258602014346E-14
30                                                370                                               1.6036985839928744E-14
30                                                375                                               1.607534741865874E-14
30                                                380                                               1.6114446969744494E-14
30                                                385                                               1.6116485728867636E-14
30                                                390                                               1.610182109412103E-14
30                                                395                                               1.6086502557546617E-14
30                                                400                                               1.6092917896758917E-14
30                                                405                                               1.6119788425966722E-14
30                                                410                                               1.614666294658031E-14
30                                                415                                               1.6174837594268602E-14
30                                                420                                               1.6205445675451754E-14
30                                                425                                               1.62359870804314E-14
30                                                430                                               1.6266479878699587E-14
30                                                435                                               1.63863460695695E-14
30                                                440                                               1.6518876776949786E-14
30                                                445                                               1.665431529752172E-14
30                                                450                                               1.6792696911361264E-14
30                                                455                                               1.6939567056252646E-14
30                                                460                                               1.7090316314490358E-14
30                                                465                                               1.7243713618713786E-14
30                                                470                                               1.739976880379027E-14
30                                                475                                               1.7772374696258838E-14
30                                                480                                               1.8255916059168628E-14
30                                                485                                               1.877417545993918E-14