% Model:              Simulação_oficial_V2.mph
% Version:            COMSOL 6.1.0.282
% Date:               Nov 3 2025, 16:01
% Table:              Table 7 - Volume Integration 2
% angle                                           lambda                                            Electric field norm (V*m^2)
0                                                 300                                               1.4865527267450717E-14
0                                                 305                                               1.490680812734226E-14
0                                                 310                                               1.4961022984468842E-14
0                                                 315                                               1.4986565435262273E-14
0                                                 320                                               1.5003276187778263E-14
0                                                 325                                               1.5179029269407264E-14
0                                                 330                                               1.5370846008153872E-14
0                                                 335                                               1.5466765747648938E-14
0                                                 340                                               1.5518238035524835E-14
0                                                 345                                               1.5540436498313983E-14
0                                                 350                                               1.5533898123476813E-14
0                                                 355                                               1.5532474783569514E-14
0                                                 360                                               1.556634297225307E-14
0                                                 365                                               1.559995832792655E-14
0                                                 370                                               1.5629470662612366E-14
0                                                 375                                               1.565349052324342E-14
0                                                 380                                               1.5677432319642723E-14
0                                                 385                                               1.5678596775049632E-14
0                                                 390                                               1.5669585520784544E-14
0                                                 395                                               1.5660105159867894E-14
0                                                 400                                               1.567269962726021E-14
0                                                 405                                               1.570558705959365E-14
0                                                 410                                               1.5738004341320207E-14
0                                                 415                                               1.5773841310845E-14
0                                                 420                                               1.581667236514718E-14
0                                                 425                                               1.5859004479877456E-14
0                                                 430                                               1.5900873303722424E-14
0                                                 435                                               1.6025252765199415E-14
0                                                 440                                               1.6161177334304585E-14
0                                                 445                                               1.629967411391698E-14
0                                                 450                                               1.644084597073729E-14
0                                                 455                                               1.6601559759202225E-14
0                                                 460                                               1.676941783152093E-14
0                                                 465                                               1.6940934262541165E-14
0                                                 470                                               1.711624842853503E-14
0                                                 475                                               1.7461996409366006E-14
0                                                 480                                               1.7898756318654993E-14
0                                                 485                                               1.8368340794176812E-14
0                                                 490                                               1.8874511286445443E-14
0                                                 495                                               1.9421709596653263E-14
0                                                 500                                               2.0079614382736134E-14
0                                                 505                                               2.0816815876706943E-14
0                                                 510                                               2.16304168787176E-14
0                                                 515                                               2.2532715234176985E-14
0                                                 520                                               2.3539070040757556E-14
0                                                 525                                               2.376894552549598E-14
0                                                 530                                               2.3782092386704266E-14
0                                                 535                                               2.3762410226755694E-14
0                                                 540                                               2.3710037528255133E-14
0                                                 545                                               2.3622949949570798E-14
0                                                 550                                               2.3456821913365007E-14
0                                                 555                                               2.317098391590258E-14
0                                                 560                                               2.2932984376637195E-14
0                                                 565                                               2.282071631134443E-14
0                                                 570                                               2.293025592228495E-14
0                                                 575                                               2.334312598695042E-14
0                                                 580                                               2.408968665521254E-14
0                                                 585                                               2.4936479592968143E-14
0                                                 590                                               2.5690190440874445E-14
0                                                 595                                               2.6298190881169846E-14
0                                                 600                                               2.6718944998595073E-14
0                                                 605                                               2.701572694932599E-14
0                                                 610                                               2.714221545753379E-14
0                                                 615                                               2.693680822877192E-14
0                                                 620                                               2.6434345355344352E-14
0                                                 625                                               2.5850219014909916E-14
0                                                 630                                               2.5299706762281694E-14
0                                                 635                                               2.4770105698149135E-14
0                                                 640                                               2.4121769238428932E-14
0                                                 645                                               2.3310720424856165E-14
0                                                 650                                               2.2563120782662352E-14
0                                                 655                                               2.2149506326768868E-14
0                                                 660                                               2.2120415009387646E-14
0                                                 665                                               2.2361908610581776E-14
0                                                 670                                               2.277785854042931E-14
0                                                 675                                               2.3340606065475508E-14
0                                                 680                                               2.4044105485936257E-14
0                                                 685                                               2.489485259609303E-14
0                                                 690                                               2.5908006987106775E-14
0                                                 695                                               2.7105744160324553E-14
0                                                 700                                               2.851693589636536E-14
0                                                 705                                               3.0167067192534855E-14
0                                                 710                                               3.1988921942334043E-14
0                                                 715                                               3.4111799334723114E-14
0                                                 720                                               3.6592368298202386E-14
0                                                 725                                               3.9500872304700973E-14
0                                                 730                                               4.292201079533787E-14
0                                                 735                                               4.694975764688401E-14
0                                                 740                                               5.166635666559376E-14
0                                                 745                                               5.708509495632267E-14
0                                                 750                                               6.302305552228131E-14
0                                                 755                                               6.889210284664342E-14
0                                                 760                                               7.337169113132098E-14
0                                                 765                                               7.550721386129805E-14
0                                                 770                                               7.525444779075607E-14
0                                                 775                                               7.375950493917679E-14
0                                                 780                                               7.232688436251558E-14
0                                                 785                                               7.1503488447932E-14
0                                                 790                                               7.099712672629787E-14
0                                                 795                                               6.998883816922135E-14
0                                                 800                                               6.767753264873078E-14
15                                                300                                               1.5597536403958848E-14
15                                                305                                               1.5642935768916036E-14
15                                                310                                               1.5698487156961658E-14
15                                                315                                               1.5728153767122146E-14
15                                                320                                               1.5749806661208477E-14
15                                                325                                               1.5913928296309095E-14
15                                                330                                               1.6092710311262926E-14
15                                                335                                               1.6185837137829777E-14
15                                                340                                               1.623914206176417E-14
15                                                345                                               1.6266119515286134E-14
15                                                350                                               1.6267216208141164E-14
15                                                355                                               1.627277340225766E-14
15                                                360                                               1.631004235603734E-14
15                                                365                                               1.6347187981418728E-14
15                                                370                                               1.6380785404031792E-14
15                                                375                                               1.640963300387626E-14
15                                                380                                               1.6438536042871756E-14
15                                                385                                               1.6446559829896058E-14
15                                                390                                               1.6445153611272595E-14
15                                                395                                               1.64432346332678E-14
15                                                400                                               1.6461039341547896E-14
15                                                405                                               1.649696205900059E-14
15                                                410                                               1.6532362488259412E-14
15                                                415                                               1.6570590672062627E-14
15                                                420                                               1.6614682474457963E-14
15                                                425                                               1.6658170672471957E-14
15                                                430                                               1.6701090026422745E-14
15                                                435                                               1.6818018577301942E-14
15                                                440                                               1.6945092807083112E-14
15                                                445                                               1.7074255136274877E-14
15                                                450                                               1.7205610168189397E-14
15                                                455                                               1.7353376516821163E-14
15                                                460                                               1.75070594551963E-14
15                                                465                                               1.766375204375229E-14
15                                                470                                               1.7823609361458124E-14
15                                                475                                               1.813932372530414E-14
15                                                480                                               1.853843176859914E-14
15                                                485                                               1.8967807775813437E-14
15                                                490                                               1.9431078481393132E-14
15                                                495                                               1.993253458402914E-14
15                                                500                                               2.054762697034869E-14
15                                                505                                               2.124046568829445E-14
15                                                510                                               2.2006130453508364E-14
15                                                515                                               2.2856553764276123E-14
15                                                520                                               2.3807969507286517E-14
15                                                525                                               2.4064663031976742E-14
15                                                530                                               2.41410331605282E-14
15                                                535                                               2.4206635688933148E-14
15                                                540                                               2.4260687414754376E-14
15                                                545                                               2.4297430877045583E-14
15                                                550                                               2.4268504398052948E-14
15                                                555                                               2.4130609279527546E-14
15                                                560                                               2.4062848882273177E-14
15                                                565                                               2.4146459961971423E-14
15                                                570                                               2.447694040976266E-14
15                                                575                                               2.5133950535268685E-14
15                                                580                                               2.613341308153658E-14
15                                                585                                               2.7136353199245513E-14
15                                                590                                               2.7859100788682665E-14
15                                                595                                               2.8247643009255832E-14
15                                                600                                               2.8290472163083934E-14
15                                                605                                               2.8124133560748362E-14
15                                                610                                               2.778573956870288E-14
15                                                615                                               2.7153687151572765E-14
15                                                620                                               2.6312692923177726E-14
15                                                625                                               2.547813306560748E-14
15                                                630                                               2.4783959571654347E-14
15                                                635                                               2.4315118400858703E-14
15                                                640                                               2.4074730603464704E-14
15                                                645                                               2.400013994712247E-14
15                                                650                                               2.401455875382188E-14
15                                                655                                               2.4121531811200198E-14
15                                                660                                               2.437530639332308E-14
15                                                665                                               2.474753158550929E-14
15                                                670                                               2.528447296263902E-14
15                                                675                                               2.5985978552829342E-14
15                                                680                                               2.686183506000057E-14
15                                                685                                               2.7934281046289506E-14
15                                                690                                               2.92412275161346E-14
15                                                695                                               3.0841818791238865E-14
15                                                700                                               3.282525008754061E-14
15                                                705                                               3.530330784897647E-14
15                                                710                                               3.8238906354614716E-14
15                                                715                                               4.1927759418113916E-14
15                                                720                                               4.652439427322525E-14
15                                                725                                               5.2071924996672275E-14
15                                                730                                               5.822167280561007E-14
15                                                735                                               6.374665138242797E-14
15                                                740                                               6.652131957268372E-14
15                                                745                                               6.526984812806095E-14
15                                                750                                               6.134590059858951E-14
15                                                755                                               5.716604357765766E-14
15                                                760                                               5.406901934667086E-14
15                                                765                                               5.2267635545209644E-14
15                                                770                                               5.159722712821209E-14
15                                                775                                               5.186257659644257E-14
15                                                780                                               5.290320578642222E-14
15                                                785                                               5.4584069247282706E-14
15                                                790                                               5.6773406305418303E-14
15                                                795                                               5.931526760661758E-14
15                                                800                                               6.199634365993143E-14
30                                                300                                               1.6333173157720518E-14
30                                                305                                               1.6389000026947798E-14
30                                                310                                               1.6453265413532682E-14
30                                                315                                               1.6495360923467903E-14
30                                                320                                               1.6530298858575383E-14
30                                                325                                               1.6686629229299768E-14
30                                                330                                               1.6854978351155707E-14
30                                                335                                               1.6950217217407792E-14
30                                                340                                               1.7011109085429853E-14
30                                                345                                               1.7048911771267673E-14
30                                                350                                               1.7064018931500526E-14
30                                                355                                               1.7082161070460192E-14
30                                                360                                               1.7126007696977484E-14
30                                                365                                               1.7169619458115304E-14
30                                                370                                               1.7210038991982203E-14
30                                                375                                               1.724629526781504E-14
30                                                380                                               1.728258789546256E-14
30                                                385                                               1.730088180101271E-14
30                                                390                                               1.7310802631076237E-14
30                                                395                                               1.7320003607184562E-14
30                                                400                                               1.7345838990866507E-14
30                                                405                                               1.7386939089739177E-14
30                                                410                                               1.7427339965619562E-14
30                                                415                                               1.74698228940047E-14
30                                                420                                               1.751684964288388E-14
30                                                425                                               1.756305963345136E-14
30                                                430                                               1.7608494811560233E-14
30                                                435                                               1.7717087019654454E-14
30                                                440                                               1.7833999956239523E-14
30                                                445                                               1.7952331965081326E-14
30                                                450                                               1.8072182686401938E-14
30                                                455                                               1.8204845683779807E-14
30                                                460                                               1.834188707031644E-14
30                                                465                                               1.8481015066178255E-14
30                                                470                                               1.862238042369199E-14
30                                                475                                               1.889885987290165E-14
30                                                480                                               1.9247399848885787E-14
30                                                485                                               1.962188730459503E-14